# vtk DataFile Version 3.0
#This file was generated by the deal.II library on 2026/6/8 at 18:50:06
ASCII
DATASET UNSTRUCTURED_GRID

POINTS 400 double
0 0 0
0.1 0 0
0 0.1 0
0.1 0.1 0
0.1 0 0
0.2 0 0
0.1 0.1 0
0.2 0.1 0
0 0.1 0
0.1 0.1 0
0 0.2 0
0.1 0.2 0
0.1 0.1 0
0.2 0.1 0
0.1 0.2 0
0.2 0.2 0
0 0.2 0
0.1 0.2 0
0 0.3 0
0.1 0.3 0
0.1 0.2 0
0.2 0.2 0
0.1 0.3 0
0.2 0.3 0
0 0.3 0
0.1 0.3 0
0 0.4 0
0.1 0.4 0
0.1 0.3 0
0.2 0.3 0
0.1 0.4 0
0.2 0.4 0
0 0.4 0
0.1 0.4 0
0 0.5 0
0.1 0.5 0
0.1 0.4 0
0.2 0.4 0
0.1 0.5 0
0.2 0.5 0
0 0.5 0
0.1 0.5 0
0 0.6 0
0.1 0.6 0
0.1 0.5 0
0.2 0.5 0
0.1 0.6 0
0.2 0.6 0
0 0.6 0
0.1 0.6 0
0 0.7 0
0.1 0.7 0
0.1 0.6 0
0.2 0.6 0
0.1 0.7 0
0.2 0.7 0
0 0.7 0
0.1 0.7 0
0 0.8 0
0.1 0.8 0
0.1 0.7 0
0.2 0.7 0
0.1 0.8 0
0.2 0.8 0
0 0.8 0
0.1 0.8 0
0 0.9 0
0.1 0.9 0
0.1 0.8 0
0.2 0.8 0
0.1 0.9 0
0.2 0.9 0
0 0.9 0
0.1 0.9 0
0 1 0
0.1 1 0
0.1 0.9 0
0.2 0.9 0
0.1 1 0
0.2 1 0
0.2 0 0
0.3 0 0
0.2 0.1 0
0.3 0.1 0
0.3 0 0
0.4 0 0
0.3 0.1 0
0.4 0.1 0
0.2 0.1 0
0.3 0.1 0
0.2 0.2 0
0.3 0.2 0
0.3 0.1 0
0.4 0.1 0
0.3 0.2 0
0.4 0.2 0
0.2 0.2 0
0.3 0.2 0
0.2 0.3 0
0.3 0.3 0
0.3 0.2 0
0.4 0.2 0
0.3 0.3 0
0.4 0.3 0
0.2 0.3 0
0.3 0.3 0
0.2 0.4 0
0.3 0.4 0
0.3 0.3 0
0.4 0.3 0
0.3 0.4 0
0.4 0.4 0
0.2 0.4 0
0.3 0.4 0
0.2 0.5 0
0.3 0.5 0
0.3 0.4 0
0.4 0.4 0
0.3 0.5 0
0.4 0.5 0
0.2 0.5 0
0.3 0.5 0
0.2 0.6 0
0.3 0.6 0
0.3 0.5 0
0.4 0.5 0
0.3 0.6 0
0.4 0.6 0
0.2 0.6 0
0.3 0.6 0
0.2 0.7 0
0.3 0.7 0
0.3 0.6 0
0.4 0.6 0
0.3 0.7 0
0.4 0.7 0
0.2 0.7 0
0.3 0.7 0
0.2 0.8 0
0.3 0.8 0
0.3 0.7 0
0.4 0.7 0
0.3 0.8 0
0.4 0.8 0
0.2 0.8 0
0.3 0.8 0
0.2 0.9 0
0.3 0.9 0
0.3 0.8 0
0.4 0.8 0
0.3 0.9 0
0.4 0.9 0
0.2 0.9 0
0.3 0.9 0
0.2 1 0
0.3 1 0
0.3 0.9 0
0.4 0.9 0
0.3 1 0
0.4 1 0
0.4 0 0
0.5 0 0
0.4 0.1 0
0.5 0.1 0
0.5 0 0
0.6 0 0
0.5 0.1 0
0.6 0.1 0
0.4 0.1 0
0.5 0.1 0
0.4 0.2 0
0.5 0.2 0
0.5 0.1 0
0.6 0.1 0
0.5 0.2 0
0.6 0.2 0
0.4 0.2 0
0.5 0.2 0
0.4 0.3 0
0.5 0.3 0
0.5 0.2 0
0.6 0.2 0
0.5 0.3 0
0.6 0.3 0
0.4 0.3 0
0.5 0.3 0
0.4 0.4 0
0.5 0.4 0
0.5 0.3 0
0.6 0.3 0
0.5 0.4 0
0.6 0.4 0
0.4 0.4 0
0.5 0.4 0
0.4 0.5 0
0.5 0.5 0
0.5 0.4 0
0.6 0.4 0
0.5 0.5 0
0.6 0.5 0
0.4 0.5 0
0.5 0.5 0
0.4 0.6 0
0.5 0.6 0
0.5 0.5 0
0.6 0.5 0
0.5 0.6 0
0.6 0.6 0
0.4 0.6 0
0.5 0.6 0
0.4 0.7 0
0.5 0.7 0
0.5 0.6 0
0.6 0.6 0
0.5 0.7 0
0.6 0.7 0
0.4 0.7 0
0.5 0.7 0
0.4 0.8 0
0.5 0.8 0
0.5 0.7 0
0.6 0.7 0
0.5 0.8 0
0.6 0.8 0
0.4 0.8 0
0.5 0.8 0
0.4 0.9 0
0.5 0.9 0
0.5 0.8 0
0.6 0.8 0
0.5 0.9 0
0.6 0.9 0
0.4 0.9 0
0.5 0.9 0
0.4 1 0
0.5 1 0
0.5 0.9 0
0.6 0.9 0
0.5 1 0
0.6 1 0
0.6 0 0
0.7 0 0
0.6 0.1 0
0.7 0.1 0
0.7 0 0
0.8 0 0
0.7 0.1 0
0.8 0.1 0
0.6 0.1 0
0.7 0.1 0
0.6 0.2 0
0.7 0.2 0
0.7 0.1 0
0.8 0.1 0
0.7 0.2 0
0.8 0.2 0
0.6 0.2 0
0.7 0.2 0
0.6 0.3 0
0.7 0.3 0
0.7 0.2 0
0.8 0.2 0
0.7 0.3 0
0.8 0.3 0
0.6 0.3 0
0.7 0.3 0
0.6 0.4 0
0.7 0.4 0
0.7 0.3 0
0.8 0.3 0
0.7 0.4 0
0.8 0.4 0
0.6 0.4 0
0.7 0.4 0
0.6 0.5 0
0.7 0.5 0
0.7 0.4 0
0.8 0.4 0
0.7 0.5 0
0.8 0.5 0
0.6 0.5 0
0.7 0.5 0
0.6 0.6 0
0.7 0.6 0
0.7 0.5 0
0.8 0.5 0
0.7 0.6 0
0.8 0.6 0
0.6 0.6 0
0.7 0.6 0
0.6 0.7 0
0.7 0.7 0
0.7 0.6 0
0.8 0.6 0
0.7 0.7 0
0.8 0.7 0
0.6 0.7 0
0.7 0.7 0
0.6 0.8 0
0.7 0.8 0
0.7 0.7 0
0.8 0.7 0
0.7 0.8 0
0.8 0.8 0
0.6 0.8 0
0.7 0.8 0
0.6 0.9 0
0.7 0.9 0
0.7 0.8 0
0.8 0.8 0
0.7 0.9 0
0.8 0.9 0
0.6 0.9 0
0.7 0.9 0
0.6 1 0
0.7 1 0
0.7 0.9 0
0.8 0.9 0
0.7 1 0
0.8 1 0
0.8 0 0
0.9 0 0
0.8 0.1 0
0.9 0.1 0
0.9 0 0
1 0 0
0.9 0.1 0
1 0.1 0
0.8 0.1 0
0.9 0.1 0
0.8 0.2 0
0.9 0.2 0
0.9 0.1 0
1 0.1 0
0.9 0.2 0
1 0.2 0
0.8 0.2 0
0.9 0.2 0
0.8 0.3 0
0.9 0.3 0
0.9 0.2 0
1 0.2 0
0.9 0.3 0
1 0.3 0
0.8 0.3 0
0.9 0.3 0
0.8 0.4 0
0.9 0.4 0
0.9 0.3 0
1 0.3 0
0.9 0.4 0
1 0.4 0
0.8 0.4 0
0.9 0.4 0
0.8 0.5 0
0.9 0.5 0
0.9 0.4 0
1 0.4 0
0.9 0.5 0
1 0.5 0
0.8 0.5 0
0.9 0.5 0
0.8 0.6 0
0.9 0.6 0
0.9 0.5 0
1 0.5 0
0.9 0.6 0
1 0.6 0
0.8 0.6 0
0.9 0.6 0
0.8 0.7 0
0.9 0.7 0
0.9 0.6 0
1 0.6 0
0.9 0.7 0
1 0.7 0
0.8 0.7 0
0.9 0.7 0
0.8 0.8 0
0.9 0.8 0
0.9 0.7 0
1 0.7 0
0.9 0.8 0
1 0.8 0
0.8 0.8 0
0.9 0.8 0
0.8 0.9 0
0.9 0.9 0
0.9 0.8 0
1 0.8 0
0.9 0.9 0
1 0.9 0
0.8 0.9 0
0.9 0.9 0
0.8 1 0
0.9 1 0
0.9 0.9 0
1 0.9 0
0.9 1 0
1 1 0

CELLS 100 500
4	0	1	3	2
4	4	5	7	6
4	8	9	11	10
4	12	13	15	14
4	16	17	19	18
4	20	21	23	22
4	24	25	27	26
4	28	29	31	30
4	32	33	35	34
4	36	37	39	38
4	40	41	43	42
4	44	45	47	46
4	48	49	51	50
4	52	53	55	54
4	56	57	59	58
4	60	61	63	62
4	64	65	67	66
4	68	69	71	70
4	72	73	75	74
4	76	77	79	78
4	80	81	83	82
4	84	85	87	86
4	88	89	91	90
4	92	93	95	94
4	96	97	99	98
4	100	101	103	102
4	104	105	107	106
4	108	109	111	110
4	112	113	115	114
4	116	117	119	118
4	120	121	123	122
4	124	125	127	126
4	128	129	131	130
4	132	133	135	134
4	136	137	139	138
4	140	141	143	142
4	144	145	147	146
4	148	149	151	150
4	152	153	155	154
4	156	157	159	158
4	160	161	163	162
4	164	165	167	166
4	168	169	171	170
4	172	173	175	174
4	176	177	179	178
4	180	181	183	182
4	184	185	187	186
4	188	189	191	190
4	192	193	195	194
4	196	197	199	198
4	200	201	203	202
4	204	205	207	206
4	208	209	211	210
4	212	213	215	214
4	216	217	219	218
4	220	221	223	222
4	224	225	227	226
4	228	229	231	230
4	232	233	235	234
4	236	237	239	238
4	240	241	243	242
4	244	245	247	246
4	248	249	251	250
4	252	253	255	254
4	256	257	259	258
4	260	261	263	262
4	264	265	267	266
4	268	269	271	270
4	272	273	275	274
4	276	277	279	278
4	280	281	283	282
4	284	285	287	286
4	288	289	291	290
4	292	293	295	294
4	296	297	299	298
4	300	301	303	302
4	304	305	307	306
4	308	309	311	310
4	312	313	315	314
4	316	317	319	318
4	320	321	323	322
4	324	325	327	326
4	328	329	331	330
4	332	333	335	334
4	336	337	339	338
4	340	341	343	342
4	344	345	347	346
4	348	349	351	350
4	352	353	355	354
4	356	357	359	358
4	360	361	363	362
4	364	365	367	366
4	368	369	371	370
4	372	373	375	374
4	376	377	379	378
4	380	381	383	382
4	384	385	387	386
4	388	389	391	390
4	392	393	395	394
4	396	397	399	398

CELL_TYPES 100
 9 9 9 9 9 9 9 9 9 9 9 9 9 9 9 9 9 9 9 9 9 9 9 9 9 9 9 9 9 9 9 9 9 9 9 9 9 9 9 9 9 9 9 9 9 9 9 9 9 9 9 9 9 9 9 9 9 9 9 9 9 9 9 9 9 9 9 9 9 9 9 9 9 9 9 9 9 9 9 9 9 9 9 9 9 9 9 9 9 9 9 9 9 9 9 9 9 9 9 9
POINT_DATA 400
VECTORS velocity double
0 0 0
0.309017 0 0
0 -0.309017 0
0.293891 -0.29389 0
0.309017 0 0
0.587785 0 0
0.293891 -0.29389 0
0.559013 -0.249997 0
0 -0.309017 0
0.293891 -0.29389 0
0 -0.587785 0
0.249997 -0.559011 0
0.293891 -0.29389 0
0.559013 -0.249997 0
0.249997 -0.559011 0
0.475524 -0.475524 0
0 -0.587785 0
0.249997 -0.559011 0
0 -0.809017 0
0.181634 -0.769418 0
0.249997 -0.559011 0
0.475524 -0.475524 0
0.181634 -0.769418 0
0.345487 -0.654501 0
0 -0.809017 0
0.181634 -0.769418 0
0 -0.951057 0
0.0954901 -0.904504 0
0.181634 -0.769418 0
0.345487 -0.654501 0
0.0954901 -0.904504 0
0.181632 -0.769414 0
0 -0.951057 0
0.0954901 -0.904504 0
0 -1 0
-6.52451e-07 -0.95105 0
0.0954901 -0.904504 0
0.181632 -0.769414 0
-6.52451e-07 -0.95105 0
-1.04972e-06 -0.809008 0
0 -1 0
-6.52451e-07 -0.95105 0
0 -0.951057 0
-0.0954912 -0.904504 0
-6.52451e-07 -0.95105 0
-1.04972e-06 -0.809008 0
-0.0954912 -0.904504 0
-0.181635 -0.769414 0
0 -0.951057 0
-0.0954912 -0.904504 0
0 -0.809017 0
-0.181635 -0.769419 0
-0.0954912 -0.904504 0
-0.181635 -0.769414 0
-0.181635 -0.769419 0
-0.345488 -0.654502 0
0 -0.809017 0
-0.181635 -0.769419 0
0 -0.587785 0
-0.249997 -0.559013 0
-0.181635 -0.769419 0
-0.345488 -0.654502 0
-0.249997 -0.559013 0
-0.475525 -0.475525 0
0 -0.587785 0
-0.249997 -0.559013 0
0 -0.309017 0
-0.293891 -0.293891 0
-0.249997 -0.559013 0
-0.475525 -0.475525 0
-0.293891 -0.293891 0
-0.559012 -0.249997 0
0 -0.309017 0
-0.293891 -0.293891 0
0 -1.22465e-16 0
-0.309017 -1.16471e-16 0
-0.293891 -0.293891 0
-0.559012 -0.249997 0
-0.309017 -1.16471e-16 0
-0.587785 -9.9076e-17 0
0.587785 0 0
0.809017 0 0
0.559013 -0.249997 0
0.769419 -0.181635 0
0.809017 0 0
0.951057 0 0
0.769419 -0.181635 0
0.904504 -0.0954909 0
0.559013 -0.249997 0
0.769419 -0.181635 0
0.475524 -0.475524 0
0.654501 -0.345488 0
0.769419 -0.181635 0
0.904504 -0.0954909 0
0.654501 -0.345488 0
0.769413 -0.181634 0
0.475524 -0.475524 0
0.654501 -0.345488 0
0.345487 -0.654501 0
0.47552 -0.475521 0
0.654501 -0.345488 0
0.769413 -0.181634 0
0.47552 -0.475521 0
0.559009 -0.249997 0
0.345487 -0.654501 0
0.47552 -0.475521 0
0.181632 -0.769414 0
0.249995 -0.55901 0
0.47552 -0.475521 0
0.559009 -0.249997 0
0.249995 -0.55901 0
0.293887 -0.293889 0
0.181632 -0.769414 0
0.249995 -0.55901 0
-1.04972e-06 -0.809008 0
-1.36842e-06 -0.587777 0
0.249995 -0.55901 0
0.293887 -0.293889 0
-1.36842e-06 -0.587777 0
-1.33346e-06 -0.309013 0
-1.04972e-06 -0.809008 0
-1.36842e-06 -0.587777 0
-0.181635 -0.769414 0
-0.249998 -0.55901 0
-1.36842e-06 -0.587777 0
-1.33346e-06 -0.309013 0
-0.249998 -0.55901 0
-0.29389 -0.293888 0
-0.181635 -0.769414 0
-0.249998 -0.55901 0
-0.345488 -0.654502 0
-0.475522 -0.475521 0
-0.249998 -0.55901 0
-0.29389 -0.293888 0
-0.475522 -0.475521 0
-0.559011 -0.249996 0
-0.345488 -0.654502 0
-0.475522 -0.475521 0
-0.475525 -0.475525 0
-0.654502 -0.345487 0
-0.475522 -0.475521 0
-0.559011 -0.249996 0
-0.654502 -0.345487 0
-0.769415 -0.181633 0
-0.475525 -0.475525 0
-0.654502 -0.345487 0
-0.559012 -0.249997 0
-0.769419 -0.181634 0
-0.654502 -0.345487 0
-0.769415 -0.181633 0
-0.769419 -0.181634 0
-0.904504 -0.0954905 0
-0.559012 -0.249997 0
-0.769419 -0.181634 0
-0.587785 -9.9076e-17 0
-0.809017 -7.19829e-17 0
-0.769419 -0.181634 0
-0.904504 -0.0954905 0
-0.809017 -7.19829e-17 0
-0.951057 -3.78437e-17 0
0.951057 0 0
1 0 0
0.904504 -0.0954909 0
0.95105 -4.55065e-07 0
1 0 0
0.951057 0 0
0.95105 -4.55065e-07 0
0.904503 0.0954902 0
0.904504 -0.0954909 0
0.95105 -4.55065e-07 0
0.769413 -0.181634 0
0.809008 -6.39069e-07 0
0.95105 -4.55065e-07 0
0.904503 0.0954902 0
0.809008 -6.39069e-07 0
0.769413 0.181633 0
0.769413 -0.181634 0
0.809008 -6.39069e-07 0
0.559009 -0.249997 0
0.587776 -7.35733e-07 0
0.809008 -6.39069e-07 0
0.769413 0.181633 0
0.587776 -7.35733e-07 0
0.559009 0.249996 0
0.559009 -0.249997 0
0.587776 -7.35733e-07 0
0.293887 -0.293889 0
0.309012 -5.17606e-07 0
0.587776 -7.35733e-07 0
0.559009 0.249996 0
0.309012 -5.17606e-07 0
0.293887 0.293888 0
0.293887 -0.293889 0
0.309012 -5.17606e-07 0
-1.33346e-06 -0.309013 0
-1.0256e-06 7.74297e-08 0
0.309012 -5.17606e-07 0
0.293887 0.293888 0
-1.0256e-06 7.74297e-08 0
-6.10619e-07 0.309013 0
-1.33346e-06 -0.309013 0
-1.0256e-06 7.74297e-08 0
-0.29389 -0.293888 0
-0.309014 2.0532e-07 0
-1.0256e-06 7.74297e-08 0
-6.10619e-07 0.309013 0
-0.309014 2.0532e-07 0
-0.293889 0.293888 0
-0.29389 -0.293888 0
-0.309014 2.0532e-07 0
-0.559011 -0.249996 0
-0.587778 4.17886e-07 0
-0.309014 2.0532e-07 0
-0.293889 0.293888 0
-0.587778 4.17886e-07 0
-0.55901 0.249997 0
-0.559011 -0.249996 0
-0.587778 4.17886e-07 0
-0.769415 -0.181633 0
-0.809009 3.62664e-07 0
-0.587778 4.17886e-07 0
-0.55901 0.249997 0
-0.809009 3.62664e-07 0
-0.769414 0.181634 0
-0.769415 -0.181633 0
-0.809009 3.62664e-07 0
-0.904504 -0.0954905 0
-0.951051 2.83006e-07 0
-0.809009 3.62664e-07 0
-0.769414 0.181634 0
-0.951051 2.83006e-07 0
-0.904504 0.0954909 0
-0.904504 -0.0954905 0
-0.951051 2.83006e-07 0
-0.951057 -3.78437e-17 0
-1 -3.46914e-32 0
-0.951051 2.83006e-07 0
-0.904504 0.0954909 0
-1 -3.46914e-32 0
-0.951057 3.78437e-17 0
0.951057 0 0
0.809017 0 0
0.904503 0.0954902 0
0.769417 0.181634 0
0.809017 0 0
0.587785 0 0
0.769417 0.181634 0
0.559011 0.249997 0
0.904503 0.0954902 0
0.769417 0.181634 0
0.769413 0.181633 0
0.654501 0.345487 0
0.769417 0.181634 0
0.559011 0.249997 0
0.654501 0.345487 0
0.475524 0.475524 0
0.769413 0.181633 0
0.654501 0.345487 0
0.559009 0.249996 0
0.47552 0.47552 0
0.654501 0.345487 0
0.475524 0.475524 0
0.47552 0.47552 0
0.345487 0.654502 0
0.559009 0.249996 0
0.47552 0.47552 0
0.293887 0.293888 0
0.249996 0.55901 0
0.47552 0.47552 0
0.345487 0.654502 0
0.249996 0.55901 0
0.181633 0.769414 0
0.293887 0.293888 0
0.249996 0.55901 0
-6.10619e-07 0.309013 0
-2.14835e-07 0.587777 0
0.249996 0.55901 0
0.181633 0.769414 0
-2.14835e-07 0.587777 0
-4.79949e-08 0.809008 0
-6.10619e-07 0.309013 0
-2.14835e-07 0.587777 0
-0.293889 0.293888 0
-0.249997 0.55901 0
-2.14835e-07 0.587777 0
-4.79949e-08 0.809008 0
-0.249997 0.55901 0
-0.181633 0.769414 0
-0.293889 0.293888 0
-0.249997 0.55901 0
-0.55901 0.249997 0
-0.475521 0.475521 0
-0.249997 0.55901 0
-0.181633 0.769414 0
-0.475521 0.475521 0
-0.345487 0.654502 0
-0.55901 0.249997 0
-0.475521 0.475521 0
-0.769414 0.181634 0
-0.654502 0.345488 0
-0.475521 0.475521 0
-0.345487 0.654502 0
-0.654502 0.345488 0
-0.475525 0.475525 0
-0.769414 0.181634 0
-0.654502 0.345488 0
-0.904504 0.0954909 0
-0.769419 0.181635 0
-0.654502 0.345488 0
-0.475525 0.475525 0
-0.769419 0.181635 0
-0.559013 0.249997 0
-0.904504 0.0954909 0
-0.769419 0.181635 0
-0.951057 3.78437e-17 0
-0.809017 7.19829e-17 0
-0.769419 0.181635 0
-0.559013 0.249997 0
-0.809017 7.19829e-17 0
-0.587785 9.9076e-17 0
0.587785 0 0
0.309017 0 0
0.559011 0.249997 0
0.29389 0.293891 0
0.309017 0 0
1.22465e-16 0 0
0.29389 0.293891 0
1.16471e-16 0.309017 0
0.559011 0.249997 0
0.29389 0.293891 0
0.475524 0.475524 0
0.249997 0.559013 0
0.29389 0.293891 0
1.16471e-16 0.309017 0
0.249997 0.559013 0
9.9076e-17 0.587785 0
0.475524 0.475524 0
0.249997 0.559013 0
0.345487 0.654502 0
0.181634 0.769419 0
0.249997 0.559013 0
9.9076e-17 0.587785 0
0.181634 0.769419 0
7.19829e-17 0.809017 0
0.345487 0.654502 0
0.181634 0.769419 0
0.181633 0.769414 0
0.0954906 0.904504 0
0.181634 0.769419 0
7.19829e-17 0.809017 0
0.0954906 0.904504 0
3.78437e-17 0.951057 0
0.181633 0.769414 0
0.0954906 0.904504 0
-4.79949e-08 0.809008 0
8.56073e-08 0.951051 0
0.0954906 0.904504 0
3.78437e-17 0.951057 0
8.56073e-08 0.951051 0
7.4988e-33 1 0
-4.79949e-08 0.809008 0
8.56073e-08 0.951051 0
-0.181633 0.769414 0
-0.0954906 0.904504 0
8.56073e-08 0.951051 0
7.4988e-33 1 0
-0.0954906 0.904504 0
-3.78437e-17 0.951057 0
-0.181633 0.769414 0
-0.0954906 0.904504 0
-0.345487 0.654502 0
-0.181634 0.769418 0
-0.0954906 0.904504 0
-3.78437e-17 0.951057 0
-0.181634 0.769418 0
-7.19829e-17 0.809017 0
-0.345487 0.654502 0
-0.181634 0.769418 0
-0.475525 0.475525 0
-0.249997 0.559011 0
-0.181634 0.769418 0
-7.19829e-17 0.809017 0
-0.249997 0.559011 0
-9.9076e-17 0.587785 0
-0.475525 0.475525 0
-0.249997 0.559011 0
-0.559013 0.249997 0
-0.293891 0.293891 0
-0.249997 0.559011 0
-9.9076e-17 0.587785 0
-0.293891 0.293891 0
-1.16471e-16 0.309017 0
-0.559013 0.249997 0
-0.293891 0.293891 0
-0.587785 9.9076e-17 0
-0.309017 1.16471e-16 0
-0.293891 0.293891 0
-1.16471e-16 0.309017 0
-0.309017 1.16471e-16 0
-1.22465e-16 1.22465e-16 0
VECTORS velocity_error double
0 0 0
0 0 0
0 0 0
1.49838e-06 -2.79584e-06 0
0 0 0
0 0 0
1.49838e-06 -2.79584e-06 0
4.09185e-06 -3.07721e-06 0
0 0 0
1.49838e-06 -2.79584e-06 0
0 0 0
3.02418e-06 -6.13194e-06 0
1.49838e-06 -2.79584e-06 0
4.09185e-06 -3.07721e-06 0
3.02418e-06 -6.13194e-06 0
3.94153e-06 -3.87498e-06 0
0 0 0
3.02418e-06 -6.13194e-06 0
0 0 0
1.563e-06 -3.12e-06 0
3.02418e-06 -6.13194e-06 0
3.94153e-06 -3.87498e-06 0
1.563e-06 -3.12e-06 0
4.70187e-06 -7.03172e-06 0
0 0 0
1.563e-06 -3.12e-06 0
0 0 0
1.37987e-06 -4.98952e-06 0
1.563e-06 -3.12e-06 0
4.70187e-06 -7.03172e-06 0
1.37987e-06 -4.98952e-06 0
3.16231e-06 -7.11374e-06 0
0 0 0
1.37987e-06 -4.98952e-06 0
0 0 0
6.52451e-07 -6.11799e-06 0
1.37987e-06 -4.98952e-06 0
3.16231e-06 -7.11374e-06 0
6.52451e-07 -6.11799e-06 0
1.04972e-06 -8.49363e-06 0
0 0 0
6.52451e-07 -6.11799e-06 0
0 0 0
-2.82861e-07 -4.29511e-06 0
6.52451e-07 -6.11799e-06 0
1.04972e-06 -8.49363e-06 0
-2.82861e-07 -4.29511e-06 0
-1.06526e-06 -7.03401e-06 0
0 0 0
-2.82861e-07 -4.29511e-06 0
0 0 0
-6.43561e-07 -1.70804e-06 0
-2.82861e-07 -4.29511e-06 0
-1.06526e-06 -7.03401e-06 0
-6.43561e-07 -1.70804e-06 0
-3.16174e-06 -6.43622e-06 0
0 0 0
-6.43561e-07 -1.70804e-06 0
0 0 0
-2.50063e-06 -3.73777e-06 0
-6.43561e-07 -1.70804e-06 0
-3.16174e-06 -6.43622e-06 0
-2.50063e-06 -3.73777e-06 0
-2.99648e-06 -3.4387e-06 0
0 0 0
-2.50063e-06 -3.73777e-06 0
0 0 0
-2.07046e-06 -1.1704e-06 0
-2.50063e-06 -3.73777e-06 0
-2.99648e-06 -3.4387e-06 0
-2.07046e-06 -1.1704e-06 0
-5.19181e-06 -2.68149e-06 0
0 0 0
-2.07046e-06 -1.1704e-06 0
0 0 0
0 0 0
-2.07046e-06 -1.1704e-06 0
-5.19181e-06 -2.68149e-06 0
0 0 0
0 0 0
0 0 0
0 0 0
4.09185e-06 -3.07721e-06 0
1.9861e-06 -1.04744e-06 0
0 0 0
0 0 0
1.9861e-06 -1.04744e-06 0
4.63756e-06 -5.8116e-07 0
4.09185e-06 -3.07721e-06 0
1.9861e-06 -1.04744e-06 0
3.94153e-06 -3.87498e-06 0
7.01864e-06 -3.87774e-06 0
1.9861e-06 -1.04744e-06 0
4.63756e-06 -5.8116e-07 0
7.01864e-06 -3.87774e-06 0
7.70991e-06 -1.61813e-06 0
3.94153e-06 -3.87498e-06 0
7.01864e-06 -3.87774e-06 0
4.70187e-06 -7.03172e-06 0
8.02322e-06 -6.84428e-06 0
7.01864e-06 -3.87774e-06 0
7.70991e-06 -1.61813e-06 0
8.02322e-06 -6.84428e-06 0
8.1122e-06 -2.89591e-06 0
4.70187e-06 -7.03172e-06 0
8.02322e-06 -6.84428e-06 0
3.16231e-06 -7.11374e-06 0
4.59587e-06 -6.84814e-06 0
8.02322e-06 -6.84428e-06 0
8.1122e-06 -2.89591e-06 0
4.59587e-06 -6.84814e-06 0
5.62868e-06 -3.9744e-06 0
3.16231e-06 -7.11374e-06 0
4.59587e-06 -6.84814e-06 0
1.04972e-06 -8.49363e-06 0
1.36842e-06 -7.93084e-06 0
4.59587e-06 -6.84814e-06 0
5.62868e-06 -3.9744e-06 0
1.36842e-06 -7.93084e-06 0
1.33346e-06 -4.00451e-06 0
1.04972e-06 -8.49363e-06 0
1.36842e-06 -7.93084e-06 0
-1.06526e-06 -7.03401e-06 0
-2.13078e-06 -7.22045e-06 0
1.36842e-06 -7.93084e-06 0
1.33346e-06 -4.00451e-06 0
-2.13078e-06 -7.22045e-06 0
-3.09443e-06 -4.58122e-06 0
-1.06526e-06 -7.03401e-06 0
-2.13078e-06 -7.22045e-06 0
-3.16174e-06 -6.43622e-06 0
-5.93573e-06 -7.23848e-06 0
-2.13078e-06 -7.22045e-06 0
-3.09443e-06 -4.58122e-06 0
-5.93573e-06 -7.23848e-06 0
-5.95198e-06 -3.72281e-06 0
-3.16174e-06 -6.43622e-06 0
-5.93573e-06 -7.23848e-06 0
-2.99648e-06 -3.4387e-06 0
-6.08499e-06 -4.12942e-06 0
-5.93573e-06 -7.23848e-06 0
-5.95198e-06 -3.72281e-06 0
-6.08499e-06 -4.12942e-06 0
-6.25786e-06 -2.51766e-06 0
-2.99648e-06 -3.4387e-06 0
-6.08499e-06 -4.12942e-06 0
-5.19181e-06 -2.68149e-06 0
-2.3097e-06 -1.23954e-06 0
-6.08499e-06 -4.12942e-06 0
-6.25786e-06 -2.51766e-06 0
-2.3097e-06 -1.23954e-06 0
-4.27609e-06 -1.01981e-06 0
-5.19181e-06 -2.68149e-06 0
-2.3097e-06 -1.23954e-06 0
0 0 0
0 0 0
-2.3097e-06 -1.23954e-06 0
-4.27609e-06 -1.01981e-06 0
0 0 0
0 0 0
0 0 0
0 0 0
4.63756e-06 -5.8116e-07 0
6.44041e-06 4.55065e-07 0
0 0 0
0 0 0
6.44041e-06 4.55065e-07 0
5.26963e-06 1.26406e-06 0
4.63756e-06 -5.8116e-07 0
6.44041e-06 4.55065e-07 0
7.70991e-06 -1.61813e-06 0
9.22456e-06 6.39069e-07 0
6.44041e-06 4.55065e-07 0
5.26963e-06 1.26406e-06 0
9.22456e-06 6.39069e-07 0
7.79935e-06 2.87695e-06 0
7.70991e-06 -1.61813e-06 0
9.22456e-06 6.39069e-07 0
8.1122e-06 -2.89591e-06 0
8.87435e-06 7.35733e-07 0
9.22456e-06 6.39069e-07 0
7.79935e-06 2.87695e-06 0
8.87435e-06 7.35733e-07 0
7.76159e-06 4.07215e-06 0
8.1122e-06 -2.89591e-06 0
8.87435e-06 7.35733e-07 0
5.62868e-06 -3.9744e-06 0
5.05981e-06 5.17606e-07 0
8.87435e-06 7.35733e-07 0
7.76159e-06 4.07215e-06 0
5.05981e-06 5.17606e-07 0
5.1338e-06 4.95816e-06 0
5.62868e-06 -3.9744e-06 0
5.05981e-06 5.17606e-07 0
1.33346e-06 -4.00451e-06 0
1.0256e-06 -7.74297e-08 0
5.05981e-06 5.17606e-07 0
5.1338e-06 4.95816e-06 0
1.0256e-06 -7.74297e-08 0
6.10619e-07 4.11472e-06 0
1.33346e-06 -4.00451e-06 0
1.0256e-06 -7.74297e-08 0
-3.09443e-06 -4.58122e-06 0
-3.05943e-06 -2.0532e-07 0
1.0256e-06 -7.74297e-08 0
6.10619e-07 4.11472e-06 0
-3.05943e-06 -2.0532e-07 0
-3.91063e-06 4.25377e-06 0
-3.09443e-06 -4.58122e-06 0
-3.05943e-06 -2.0532e-07 0
-5.95198e-06 -3.72281e-06 0
-7.08525e-06 -4.17886e-07 0
-3.05943e-06 -2.0532e-07 0
-3.91063e-06 4.25377e-06 0
-7.08525e-06 -4.17886e-07 0
-6.55965e-06 3.05297e-06 0
-5.95198e-06 -3.72281e-06 0
-7.08525e-06 -4.17886e-07 0
-6.25786e-06 -2.51766e-06 0
-7.7997e-06 -3.62664e-07 0
-7.08525e-06 -4.17886e-07 0
-6.55965e-06 3.05297e-06 0
-7.7997e-06 -3.62664e-07 0
-6.54519e-06 1.73537e-06 0
-6.25786e-06 -2.51766e-06 0
-7.7997e-06 -3.62664e-07 0
-4.27609e-06 -1.01981e-06 0
-5.61855e-06 -2.83006e-07 0
-7.7997e-06 -3.62664e-07 0
-6.54519e-06 1.73537e-06 0
-5.61855e-06 -2.83006e-07 0
-4.06623e-06 6.31229e-07 0
-4.27609e-06 -1.01981e-06 0
-5.61855e-06 -2.83006e-07 0
0 0 0
0 0 0
-5.61855e-06 -2.83006e-07 0
-4.06623e-06 6.31229e-07 0
0 0 0
0 0 0
0 0 0
0 0 0
5.26963e-06 1.26406e-06 0
3.50462e-06 1.53629e-06 0
0 0 0
0 0 0
3.50462e-06 1.53629e-06 0
6.49221e-06 3.08935e-06 0
5.26963e-06 1.26406e-06 0
3.50462e-06 1.53629e-06 0
7.79935e-06 2.87695e-06 0
7.85359e-06 4.61039e-06 0
3.50462e-06 1.53629e-06 0
6.49221e-06 3.08935e-06 0
7.85359e-06 4.61039e-06 0
4.31039e-06 3.87595e-06 0
7.79935e-06 2.87695e-06 0
7.85359e-06 4.61039e-06 0
7.76159e-06 4.07215e-06 0
7.81878e-06 7.77862e-06 0
7.85359e-06 4.61039e-06 0
4.31039e-06 3.87595e-06 0
7.81878e-06 7.77862e-06 0
4.56146e-06 6.96396e-06 0
7.76159e-06 4.07215e-06 0
7.81878e-06 7.77862e-06 0
5.1338e-06 4.95816e-06 0
3.81802e-06 7.45136e-06 0
7.81878e-06 7.77862e-06 0
4.56146e-06 6.96396e-06 0
3.81802e-06 7.45136e-06 0
2.28827e-06 7.22107e-06 0
5.1338e-06 4.95816e-06 0
3.81802e-06 7.45136e-06 0
6.10619e-07 4.11472e-06 0
2.14835e-07 8.02876e-06 0
3.81802e-06 7.45136e-06 0
2.28827e-06 7.22107e-06 0
2.14835e-07 8.02876e-06 0
4.79949e-08 8.53062e-06 0
6.10619e-07 4.11472e-06 0
2.14835e-07 8.02876e-06 0
-3.91063e-06 4.25377e-06 0
-3.19916e-06 6.86547e-06 0
2.14835e-07 8.02876e-06 0
4.79949e-08 8.53062e-06 0
-3.19916e-06 6.86547e-06 0
-2.23229e-06 6.94347e-06 0
-3.91063e-06 4.25377e-06 0
-3.19916e-06 6.86547e-06 0
-6.55965e-06 3.05297e-06 0
-6.99391e-06 6.91027e-06 0
-3.19916e-06 6.86547e-06 0
-2.23229e-06 6.94347e-06 0
-6.99391e-06 6.91027e-06 0
-4.03793e-06 6.90681e-06 0
-6.55965e-06 3.05297e-06 0
-6.99391e-06 6.91027e-06 0
-6.54519e-06 1.73537e-06 0
-6.38155e-06 3.84545e-06 0
-6.99391e-06 6.91027e-06 0
-4.03793e-06 6.90681e-06 0
-6.38155e-06 3.84545e-06 0
-3.37313e-06 3.4319e-06 0
-6.54519e-06 1.73537e-06 0
-6.38155e-06 3.84545e-06 0
-4.06623e-06 6.31229e-07 0
-1.83592e-06 9.54054e-07 0
-6.38155e-06 3.84545e-06 0
-3.37313e-06 3.4319e-06 0
-1.83592e-06 9.54054e-07 0
-4.07035e-06 2.75419e-06 0
-4.06623e-06 6.31229e-07 0
-1.83592e-06 9.54054e-07 0
0 0 0
0 0 0
-1.83592e-06 9.54054e-07 0
-4.07035e-06 2.75419e-06 0
0 0 0
0 0 0
0 0 0
0 0 0
6.49221e-06 3.08935e-06 0
2.65437e-06 1.49204e-06 0
0 0 0
0 0 0
2.65437e-06 1.49204e-06 0
0 0 0
6.49221e-06 3.08935e-06 0
2.65437e-06 1.49204e-06 0
4.31039e-06 3.87595e-06 0
3.33075e-06 4.42443e-06 0
2.65437e-06 1.49204e-06 0
0 0 0
3.33075e-06 4.42443e-06 0
0 0 0
4.31039e-06 3.87595e-06 0
3.33075e-06 4.42443e-06 0
4.56146e-06 6.96396e-06 0
1.35794e-06 2.114e-06 0
3.33075e-06 4.42443e-06 0
0 0 0
1.35794e-06 2.114e-06 0
0 0 0
4.56146e-06 6.96396e-06 0
1.35794e-06 2.114e-06 0
2.28827e-06 7.22107e-06 0
9.29519e-07 4.40868e-06 0
1.35794e-06 2.114e-06 0
0 0 0
9.29519e-07 4.40868e-06 0
0 0 0
2.28827e-06 7.22107e-06 0
9.29519e-07 4.40868e-06 0
4.79949e-08 8.53062e-06 0
-8.56073e-08 5.94098e-06 0
9.29519e-07 4.40868e-06 0
0 0 0
-8.56073e-08 5.94098e-06 0
0 0 0
4.79949e-08 8.53062e-06 0
-8.56073e-08 5.94098e-06 0
-2.23229e-06 6.94347e-06 0
-9.04001e-07 4.5562e-06 0
-8.56073e-08 5.94098e-06 0
0 0 0
-9.04001e-07 4.5562e-06 0
0 0 0
-2.23229e-06 6.94347e-06 0
-9.04001e-07 4.5562e-06 0
-4.03793e-06 6.90681e-06 0
-1.21282e-06 2.69432e-06 0
-9.04001e-07 4.5562e-06 0
0 0 0
-1.21282e-06 2.69432e-06 0
0 0 0
-4.03793e-06 6.90681e-06 0
-1.21282e-06 2.69432e-06 0
-3.37313e-06 3.4319e-06 0
-2.74671e-06 5.55208e-06 0
-1.21282e-06 2.69432e-06 0
0 0 0
-2.74671e-06 5.55208e-06 0
0 0 0
-3.37313e-06 3.4319e-06 0
-2.74671e-06 5.55208e-06 0
-4.07035e-06 2.75419e-06 0
-1.16405e-06 1.92895e-06 0
-2.74671e-06 5.55208e-06 0
0 0 0
-1.16405e-06 1.92895e-06 0
0 0 0
-4.07035e-06 2.75419e-06 0
-1.16405e-06 1.92895e-06 0
0 0 0
0 0 0
-1.16405e-06 1.92895e-06 0
0 0 0
0 0 0
0 0 0
SCALARS pressure double 1
LOOKUP_TABLE default
9.25907e-06 -4.59517e-06 0.30901 0.293886 -4.59517e-06 -4.19505e-06 0.293886 0.249994 0.30901 0.293886 0.587775 0.559008 0.293886 0.249994 0.559008 0.47552 0.587775 0.559008 0.809005 0.76941 0.559008 0.47552 0.76941 0.6545 0.809005 0.76941 0.951044 0.904497 0.76941 0.6545 0.904497 0.769413 0.951044 0.904497 0.999987 0.951045 0.904497 0.769413 0.951045 0.809009 0.999987 0.951045 0.951044 0.904497 0.951045 0.809009 0.904497 0.769413 0.951044 0.904497 0.809005 0.769409 0.904497 0.769413 0.769409 0.6545 0.809005 0.769409 0.587775 0.559007 0.769409 0.6545 0.559007 0.47552 0.587775 0.559007 0.30901 0.293886 0.559007 0.47552 0.293886 0.249994 0.30901 0.293886 4.97159e-06 -4.15245e-06 0.293886 0.249994 -4.15245e-06 -4.14781e-06 -4.19505e-06 -3.47094e-06 0.249994 0.181631 -3.47094e-06 -2.1675e-06 0.181631 0.0954889 0.249994 0.181631 0.47552 0.345486 0.181631 0.0954889 0.345486 0.181634 0.47552 0.345486 0.6545 0.475524 0.345486 0.181634 0.475524 0.250001 0.6545 0.475524 0.769413 0.559015 0.475524 0.250001 0.559015 0.293896 0.769413 0.559015 0.809009 0.587784 0.559015 0.293896 0.587784 0.309022 0.809009 0.587784 0.769413 0.559015 0.587784 0.309022 0.559015 0.293897 0.769413 0.559015 0.6545 0.475524 0.559015 0.293897 0.475524 0.250001 0.6545 0.475524 0.47552 0.345487 0.475524 0.250001 0.345487 0.181634 0.47552 0.345487 0.249994 0.181631 0.345487 0.181634 0.181631 0.0954891 0.249994 0.181631 -4.14781e-06 -3.3675e-06 0.181631 0.0954891 -3.3675e-06 -2.03045e-06 -2.1675e-06 -1.39837e-06 0.0954889 -8.87535e-07 -1.39837e-06 -1.71097e-06 -8.87535e-07 -0.0954918 0.0954889 -8.87535e-07 0.181634 1.37842e-06 -8.87535e-07 -0.0954918 1.37842e-06 -0.181633 0.181634 1.37842e-06 0.250001 5.14252e-06 1.37842e-06 -0.181633 5.14252e-06 -0.249993 0.250001 5.14252e-06 0.293896 8.15876e-06 5.14252e-06 -0.249993 8.15876e-06 -0.293882 0.293896 8.15876e-06 0.309022 9.07467e-06 8.15876e-06 -0.293882 9.07467e-06 -0.309005 0.309022 9.07467e-06 0.293897 8.1967e-06 9.07467e-06 -0.309005 8.1967e-06 -0.293882 0.293897 8.1967e-06 0.250001 5.19433e-06 8.1967e-06 -0.293882 5.19433e-06 -0.249993 0.250001 5.19433e-06 0.181634 1.44945e-06 5.19433e-06 -0.249993 1.44945e-06 -0.181633 0.181634 1.44945e-06 0.0954891 -8.34749e-07 1.44945e-06 -0.181633 -8.34749e-07 -0.0954918 0.0954891 -8.34749e-07 -2.03045e-06 -1.34285e-06 -8.34749e-07 -0.0954918 -1.34285e-06 -1.65552e-06 -1.71097e-06 -2.62519e-06 -0.0954918 -0.181636 -2.62519e-06 -3.09865e-06 -0.181636 -0.25 -0.0954918 -0.181636 -0.181633 -0.345488 -0.181636 -0.25 -0.345488 -0.475526 -0.181633 -0.345488 -0.249993 -0.475521 -0.345488 -0.475526 -0.475521 -0.654502 -0.249993 -0.475521 -0.293882 -0.559006 -0.475521 -0.654502 -0.559006 -0.769411 -0.293882 -0.559006 -0.309005 -0.587773 -0.559006 -0.769411 -0.587773 -0.809006 -0.309005 -0.587773 -0.293882 -0.559006 -0.587773 -0.809006 -0.559006 -0.769411 -0.293882 -0.559006 -0.249993 -0.475521 -0.559006 -0.769411 -0.475521 -0.654502 -0.249993 -0.475521 -0.181633 -0.345488 -0.475521 -0.654502 -0.345488 -0.475526 -0.181633 -0.345488 -0.0954918 -0.181636 -0.345488 -0.475526 -0.181636 -0.25 -0.0954918 -0.181636 -1.65552e-06 -2.60879e-06 -0.181636 -0.25 -2.60879e-06 -3.1711e-06 -3.09865e-06 -3.22821e-06 -0.25 -0.293893 -3.22821e-06 8.65348e-06 -0.293893 -0.309017 -0.25 -0.293893 -0.475526 -0.559014 -0.293893 -0.309017 -0.559014 -0.587782 -0.475526 -0.559014 -0.654502 -0.769414 -0.559014 -0.587782 -0.769414 -0.809011 -0.654502 -0.769414 -0.769411 -0.9045 -0.769414 -0.809011 -0.9045 -0.951047 -0.769411 -0.9045 -0.809006 -0.951046 -0.9045 -0.951047 -0.951046 -0.99999 -0.809006 -0.951046 -0.769411 -0.904499 -0.951046 -0.99999 -0.904499 -0.951047 -0.769411 -0.904499 -0.654502 -0.769414 -0.904499 -0.951047 -0.769414 -0.809011 -0.654502 -0.769414 -0.475526 -0.559013 -0.769414 -0.809011 -0.559013 -0.587782 -0.475526 -0.559013 -0.25 -0.293893 -0.559013 -0.587782 -0.293893 -0.309017 -0.25 -0.293893 -3.1711e-06 -2.76231e-06 -0.293893 -0.309017 -2.76231e-06 4.366e-06 
SCALARS pressure_error double 1
LOOKUP_TABLE default