# vtk DataFile Version 3.0
#This file was generated by the deal.II library on 2026/5/26 at 21:20:38
ASCII
DATASET UNSTRUCTURED_GRID

POINTS 100 double
0 0 0
0.2 0 0
0 0.2 0
0.2 0.2 0
0 0.2 0
0.2 0.2 0
0 0.4 0
0.2 0.4 0
0 0.4 0
0.2 0.4 0
0 0.6 0
0.2 0.6 0
0 0.6 0
0.2 0.6 0
0 0.8 0
0.2 0.8 0
0 0.8 0
0.2 0.8 0
0 1 0
0.2 1 0
0.2 0 0
0.4 0 0
0.2 0.2 0
0.4 0.2 0
0.2 0.2 0
0.4 0.2 0
0.2 0.4 0
0.4 0.4 0
0.2 0.4 0
0.4 0.4 0
0.2 0.6 0
0.4 0.6 0
0.2 0.6 0
0.4 0.6 0
0.2 0.8 0
0.4 0.8 0
0.2 0.8 0
0.4 0.8 0
0.2 1 0
0.4 1 0
0.4 0 0
0.6 0 0
0.4 0.2 0
0.6 0.2 0
0.4 0.2 0
0.6 0.2 0
0.4 0.4 0
0.6 0.4 0
0.4 0.4 0
0.6 0.4 0
0.4 0.6 0
0.6 0.6 0
0.4 0.6 0
0.6 0.6 0
0.4 0.8 0
0.6 0.8 0
0.4 0.8 0
0.6 0.8 0
0.4 1 0
0.6 1 0
0.6 0 0
0.8 0 0
0.6 0.2 0
0.8 0.2 0
0.6 0.2 0
0.8 0.2 0
0.6 0.4 0
0.8 0.4 0
0.6 0.4 0
0.8 0.4 0
0.6 0.6 0
0.8 0.6 0
0.6 0.6 0
0.8 0.6 0
0.6 0.8 0
0.8 0.8 0
0.6 0.8 0
0.8 0.8 0
0.6 1 0
0.8 1 0
0.8 0 0
1 0 0
0.8 0.2 0
1 0.2 0
0.8 0.2 0
1 0.2 0
0.8 0.4 0
1 0.4 0
0.8 0.4 0
1 0.4 0
0.8 0.6 0
1 0.6 0
0.8 0.6 0
1 0.6 0
0.8 0.8 0
1 0.8 0
0.8 0.8 0
1 0.8 0
0.8 1 0
1 1 0

CELLS 25 125
4	0	1	3	2
4	4	5	7	6
4	8	9	11	10
4	12	13	15	14
4	16	17	19	18
4	20	21	23	22
4	24	25	27	26
4	28	29	31	30
4	32	33	35	34
4	36	37	39	38
4	40	41	43	42
4	44	45	47	46
4	48	49	51	50
4	52	53	55	54
4	56	57	59	58
4	60	61	63	62
4	64	65	67	66
4	68	69	71	70
4	72	73	75	74
4	76	77	79	78
4	80	81	83	82
4	84	85	87	86
4	88	89	91	90
4	92	93	95	94
4	96	97	99	98

CELL_TYPES 25
 9 9 9 9 9 9 9 9 9 9 9 9 9 9 9 9 9 9 9 9 9 9 9 9 9
POINT_DATA 100
VECTORS velocity double
0 0 0
0.587785 0 0
0 -0.587785 0
0.475106 -0.47847 0
0 -0.587785 0
0.475106 -0.47847 0
0 -0.951057 0
0.185393 -0.77199 0
0 -0.951057 0
0.185393 -0.77199 0
0 -0.951057 0
-0.178476 -0.768877 0
0 -0.951057 0
-0.178476 -0.768877 0
0 -0.587785 0
-0.475295 -0.473206 0
0 -0.587785 0
-0.475295 -0.473206 0
0 -1.22465e-16 0
-0.587785 -9.9076e-17 0
0.587785 0 0
0.951057 0 0
0.475106 -0.47847 0
0.771646 -0.181155 0
0.475106 -0.47847 0
0.771646 -0.181155 0
0.185393 -0.77199 0
0.298556 -0.294026 0
0.185393 -0.77199 0
0.298556 -0.294026 0
-0.178476 -0.768877 0
-0.290285 -0.294569 0
-0.178476 -0.768877 0
-0.290285 -0.294569 0
-0.475295 -0.473206 0
-0.768907 -0.182419 0
-0.475295 -0.473206 0
-0.768907 -0.182419 0
-0.587785 -9.9076e-17 0
-0.951057 -3.78437e-17 0
0.951057 0 0
0.951057 0 0
0.771646 -0.181155 0
0.774079 0.183801 0
0.771646 -0.181155 0
0.774079 0.183801 0
0.298556 -0.294026 0
0.298014 0.295613 0
0.298556 -0.294026 0
0.298014 0.295613 0
-0.290285 -0.294569 0
-0.291626 0.294274 0
-0.290285 -0.294569 0
-0.291626 0.294274 0
-0.768907 -0.182419 0
-0.767889 0.180996 0
-0.768907 -0.182419 0
-0.767889 0.180996 0
-0.951057 -3.78437e-17 0
-0.951057 3.78437e-17 0
0.951057 0 0
0.587785 0 0
0.774079 0.183801 0
0.479221 0.475413 0
0.774079 0.183801 0
0.479221 0.475413 0
0.298014 0.295613 0
0.183675 0.770658 0
0.298014 0.295613 0
0.183675 0.770658 0
-0.291626 0.294274 0
-0.180827 0.770995 0
-0.291626 0.294274 0
-0.180827 0.770995 0
-0.767889 0.180996 0
-0.473513 0.476046 0
-0.767889 0.180996 0
-0.473513 0.476046 0
-0.951057 3.78437e-17 0
-0.587785 9.9076e-17 0
0.587785 0 0
1.22465e-16 0 0
0.479221 0.475413 0
9.9076e-17 0.587785 0
0.479221 0.475413 0
9.9076e-17 0.587785 0
0.183675 0.770658 0
3.78437e-17 0.951057 0
0.183675 0.770658 0
3.78437e-17 0.951057 0
-0.180827 0.770995 0
-3.78437e-17 0.951057 0
-0.180827 0.770995 0
-3.78437e-17 0.951057 0
-0.473513 0.476046 0
-9.9076e-17 0.587785 0
-0.473513 0.476046 0
-9.9076e-17 0.587785 0
-0.587785 9.9076e-17 0
-1.22465e-16 1.22465e-16 0
SCALARS pressure double 1
LOOKUP_TABLE default
-0.0227561 -0.00147973 0.619192 0.502401 0.619192 0.502401 1.0151 0.82575 1.0151 0.82575 1.01594 0.825708 1.01594 0.825708 0.619428 0.502349 0.619428 0.502349 -0.0178748 -0.00344144 -0.00147973 0.00114659 0.502401 0.197693 0.502401 0.197693 0.82575 0.324034 0.82575 0.324034 0.825708 0.323821 0.825708 0.323821 0.502349 0.197077 0.502349 0.197077 -0.00344144 0.000346955 0.00114659 -0.00200594 0.197693 -0.189745 0.197693 -0.189745 0.324034 -0.303782 0.324034 -0.303782 0.323821 -0.303995 0.323821 -0.303995 0.197077 -0.190007 0.197077 -0.190007 0.000346955 -0.00171472 -0.00200594 -0.0128343 -0.189745 -0.510368 -0.189745 -0.510368 -0.303782 -0.818022 -0.303782 -0.818022 -0.303995 -0.818416 -0.303995 -0.818416 -0.190007 -0.510421 -0.190007 -0.510421 -0.00171472 -0.0128635 -0.0128343 -0.0245901 -0.510368 -0.633771 -0.510368 -0.633771 -0.818022 -1.01651 -0.818022 -1.01651 -0.818416 -1.01676 -0.818416 -1.01676 -0.510421 -0.635467 -0.510421 -0.635467 -0.0128635 -0.0197108 
SCALARS temperature double 1
LOOKUP_TABLE default
0 0 0 0 0 0 0 0 0 0 0 0 0 0 0 0 0 0 0 0 0 0 0 0 0 0 0 0 0 0 0 0 0 0 0 0 0 0 0 0 0 0 0 0 0 0 0 0 0 0 0 0 0 0 0 0 0 0 0 0 0 0 0 0 0 0 0 0 0 0 0 0 0 0 0 0 0 0 0 0 0 0 0 0 0 0 0 0 0 0 0 0 0 0 0 0 0 0 0 0 
