# vtk DataFile Version 3.0
#This file was generated by the deal.II library on 2026/5/26 at 21:20:38
ASCII
DATASET UNSTRUCTURED_GRID

POINTS 100 double
0 0 0
0.2 0 0
0 0.2 0
0.2 0.2 0
0 0.2 0
0.2 0.2 0
0 0.4 0
0.2 0.4 0
0 0.4 0
0.2 0.4 0
0 0.6 0
0.2 0.6 0
0 0.6 0
0.2 0.6 0
0 0.8 0
0.2 0.8 0
0 0.8 0
0.2 0.8 0
0 1 0
0.2 1 0
0.2 0 0
0.4 0 0
0.2 0.2 0
0.4 0.2 0
0.2 0.2 0
0.4 0.2 0
0.2 0.4 0
0.4 0.4 0
0.2 0.4 0
0.4 0.4 0
0.2 0.6 0
0.4 0.6 0
0.2 0.6 0
0.4 0.6 0
0.2 0.8 0
0.4 0.8 0
0.2 0.8 0
0.4 0.8 0
0.2 1 0
0.4 1 0
0.4 0 0
0.6 0 0
0.4 0.2 0
0.6 0.2 0
0.4 0.2 0
0.6 0.2 0
0.4 0.4 0
0.6 0.4 0
0.4 0.4 0
0.6 0.4 0
0.4 0.6 0
0.6 0.6 0
0.4 0.6 0
0.6 0.6 0
0.4 0.8 0
0.6 0.8 0
0.4 0.8 0
0.6 0.8 0
0.4 1 0
0.6 1 0
0.6 0 0
0.8 0 0
0.6 0.2 0
0.8 0.2 0
0.6 0.2 0
0.8 0.2 0
0.6 0.4 0
0.8 0.4 0
0.6 0.4 0
0.8 0.4 0
0.6 0.6 0
0.8 0.6 0
0.6 0.6 0
0.8 0.6 0
0.6 0.8 0
0.8 0.8 0
0.6 0.8 0
0.8 0.8 0
0.6 1 0
0.8 1 0
0.8 0 0
1 0 0
0.8 0.2 0
1 0.2 0
0.8 0.2 0
1 0.2 0
0.8 0.4 0
1 0.4 0
0.8 0.4 0
1 0.4 0
0.8 0.6 0
1 0.6 0
0.8 0.6 0
1 0.6 0
0.8 0.8 0
1 0.8 0
0.8 0.8 0
1 0.8 0
0.8 1 0
1 1 0

CELLS 25 125
4	0	1	3	2
4	4	5	7	6
4	8	9	11	10
4	12	13	15	14
4	16	17	19	18
4	20	21	23	22
4	24	25	27	26
4	28	29	31	30
4	32	33	35	34
4	36	37	39	38
4	40	41	43	42
4	44	45	47	46
4	48	49	51	50
4	52	53	55	54
4	56	57	59	58
4	60	61	63	62
4	64	65	67	66
4	68	69	71	70
4	72	73	75	74
4	76	77	79	78
4	80	81	83	82
4	84	85	87	86
4	88	89	91	90
4	92	93	95	94
4	96	97	99	98

CELL_TYPES 25
 9 9 9 9 9 9 9 9 9 9 9 9 9 9 9 9 9 9 9 9 9 9 9 9 9
POINT_DATA 100
VECTORS velocity double
0 0 0
0.587785 0 0
0 -0.587785 0
0.475103 -0.478471 0
0 -0.587785 0
0.475103 -0.478471 0
0 -0.951057 0
0.185389 -0.771985 0
0 -0.951057 0
0.185389 -0.771985 0
0 -0.951057 0
-0.178486 -0.768883 0
0 -0.951057 0
-0.178486 -0.768883 0
0 -0.587785 0
-0.475301 -0.473212 0
0 -0.587785 0
-0.475301 -0.473212 0
0 -1.22465e-16 0
-0.587785 -9.9076e-17 0
0.587785 0 0
0.951057 0 0
0.475103 -0.478471 0
0.771652 -0.181155 0
0.475103 -0.478471 0
0.771652 -0.181155 0
0.185389 -0.771985 0
0.298557 -0.294026 0
0.185389 -0.771985 0
0.298557 -0.294026 0
-0.178486 -0.768883 0
-0.290293 -0.294572 0
-0.178486 -0.768883 0
-0.290293 -0.294572 0
-0.475301 -0.473212 0
-0.768902 -0.182421 0
-0.475301 -0.473212 0
-0.768902 -0.182421 0
-0.587785 -9.9076e-17 0
-0.951057 -3.78437e-17 0
0.951057 0 0
0.951057 0 0
0.771652 -0.181155 0
0.774079 0.183797 0
0.771652 -0.181155 0
0.774079 0.183797 0
0.298557 -0.294026 0
0.298012 0.295618 0
0.298557 -0.294026 0
0.298012 0.295618 0
-0.290293 -0.294572 0
-0.291633 0.294279 0
-0.290293 -0.294572 0
-0.291633 0.294279 0
-0.768902 -0.182421 0
-0.767885 0.181001 0
-0.768902 -0.182421 0
-0.767885 0.181001 0
-0.951057 -3.78437e-17 0
-0.951057 3.78437e-17 0
0.951057 0 0
0.587785 0 0
0.774079 0.183797 0
0.479217 0.475404 0
0.774079 0.183797 0
0.479217 0.475404 0
0.298012 0.295618 0
0.183671 0.770654 0
0.298012 0.295618 0
0.183671 0.770654 0
-0.291633 0.294279 0
-0.18083 0.770996 0
-0.291633 0.294279 0
-0.18083 0.770996 0
-0.767885 0.181001 0
-0.473512 0.476048 0
-0.767885 0.181001 0
-0.473512 0.476048 0
-0.951057 3.78437e-17 0
-0.587785 9.9076e-17 0
0.587785 0 0
1.22465e-16 0 0
0.479217 0.475404 0
9.9076e-17 0.587785 0
0.479217 0.475404 0
9.9076e-17 0.587785 0
0.183671 0.770654 0
3.78437e-17 0.951057 0
0.183671 0.770654 0
3.78437e-17 0.951057 0
-0.18083 0.770996 0
-3.78437e-17 0.951057 0
-0.18083 0.770996 0
-3.78437e-17 0.951057 0
-0.473512 0.476048 0
-9.9076e-17 0.587785 0
-0.473512 0.476048 0
-9.9076e-17 0.587785 0
-0.587785 9.9076e-17 0
-1.22465e-16 1.22465e-16 0
SCALARS pressure double 1
LOOKUP_TABLE default
-0.0231197 -0.00132594 0.61914 0.502479 0.61914 0.502479 1.01505 0.825852 1.01505 0.825852 1.01572 0.825628 1.01572 0.825628 0.619751 0.502324 0.619751 0.502324 -0.0186534 -0.00329386 -0.00132594 0.00106528 0.502479 0.197693 0.502479 0.197693 0.825852 0.324002 0.825852 0.324002 0.825628 0.323806 0.825628 0.323806 0.502324 0.197251 0.502324 0.197251 -0.00329386 0.000393797 0.00106528 -0.00210604 0.197693 -0.189682 0.197693 -0.189682 0.324002 -0.303812 0.324002 -0.303812 0.323806 -0.304008 0.323806 -0.304008 0.197251 -0.190091 0.197251 -0.190091 0.000393797 -0.00183642 -0.00210604 -0.013037 -0.189682 -0.510311 -0.189682 -0.510311 -0.303812 -0.818025 -0.303812 -0.818025 -0.304008 -0.818281 -0.304008 -0.818281 -0.190091 -0.510466 -0.190091 -0.510466 -0.00183642 -0.0126885 -0.013037 -0.0244119 -0.510311 -0.633766 -0.510311 -0.633766 -0.818025 -1.01649 -0.818025 -1.01649 -0.818281 -1.01676 -0.818281 -1.01676 -0.510466 -0.635471 -0.510466 -0.635471 -0.0126885 -0.0199451 
SCALARS temperature double 1
LOOKUP_TABLE default
0 0 0 0 0 0 0 0 0 0 0 0 0 0 0 0 0 0 0 0 0 0 0 0 0 0 0 0 0 0 0 0 0 0 0 0 0 0 0 0 0 0 0 0 0 0 0 0 0 0 0 0 0 0 0 0 0 0 0 0 0 0 0 0 0 0 0 0 0 0 0 0 0 0 0 0 0 0 0 0 0 0 0 0 0 0 0 0 0 0 0 0 0 0 0 0 0 0 0 0 
