# vtk DataFile Version 3.0
#This file was generated by the deal.II library on 2026/5/26 at 21:20:57
ASCII
DATASET UNSTRUCTURED_GRID

POINTS 6400 double
0 0 0
0.025 0 0
0 0.025 0
0.025 0.025 0
0.025 0 0
0.05 0 0
0.025 0.025 0
0.05 0.025 0
0 0.025 0
0.025 0.025 0
0 0.05 0
0.025 0.05 0
0.025 0.025 0
0.05 0.025 0
0.025 0.05 0
0.05 0.05 0
0.05 0 0
0.075 0 0
0.05 0.025 0
0.075 0.025 0
0.075 0 0
0.1 0 0
0.075 0.025 0
0.1 0.025 0
0.05 0.025 0
0.075 0.025 0
0.05 0.05 0
0.075 0.05 0
0.075 0.025 0
0.1 0.025 0
0.075 0.05 0
0.1 0.05 0
0 0.05 0
0.025 0.05 0
0 0.075 0
0.025 0.075 0
0.025 0.05 0
0.05 0.05 0
0.025 0.075 0
0.05 0.075 0
0 0.075 0
0.025 0.075 0
0 0.1 0
0.025 0.1 0
0.025 0.075 0
0.05 0.075 0
0.025 0.1 0
0.05 0.1 0
0.05 0.05 0
0.075 0.05 0
0.05 0.075 0
0.075 0.075 0
0.075 0.05 0
0.1 0.05 0
0.075 0.075 0
0.1 0.075 0
0.05 0.075 0
0.075 0.075 0
0.05 0.1 0
0.075 0.1 0
0.075 0.075 0
0.1 0.075 0
0.075 0.1 0
0.1 0.1 0
0.1 0 0
0.125 0 0
0.1 0.025 0
0.125 0.025 0
0.125 0 0
0.15 0 0
0.125 0.025 0
0.15 0.025 0
0.1 0.025 0
0.125 0.025 0
0.1 0.05 0
0.125 0.05 0
0.125 0.025 0
0.15 0.025 0
0.125 0.05 0
0.15 0.05 0
0.15 0 0
0.175 0 0
0.15 0.025 0
0.175 0.025 0
0.175 0 0
0.2 0 0
0.175 0.025 0
0.2 0.025 0
0.15 0.025 0
0.175 0.025 0
0.15 0.05 0
0.175 0.05 0
0.175 0.025 0
0.2 0.025 0
0.175 0.05 0
0.2 0.05 0
0.1 0.05 0
0.125 0.05 0
0.1 0.075 0
0.125 0.075 0
0.125 0.05 0
0.15 0.05 0
0.125 0.075 0
0.15 0.075 0
0.1 0.075 0
0.125 0.075 0
0.1 0.1 0
0.125 0.1 0
0.125 0.075 0
0.15 0.075 0
0.125 0.1 0
0.15 0.1 0
0.15 0.05 0
0.175 0.05 0
0.15 0.075 0
0.175 0.075 0
0.175 0.05 0
0.2 0.05 0
0.175 0.075 0
0.2 0.075 0
0.15 0.075 0
0.175 0.075 0
0.15 0.1 0
0.175 0.1 0
0.175 0.075 0
0.2 0.075 0
0.175 0.1 0
0.2 0.1 0
0 0.1 0
0.025 0.1 0
0 0.125 0
0.025 0.125 0
0.025 0.1 0
0.05 0.1 0
0.025 0.125 0
0.05 0.125 0
0 0.125 0
0.025 0.125 0
0 0.15 0
0.025 0.15 0
0.025 0.125 0
0.05 0.125 0
0.025 0.15 0
0.05 0.15 0
0.05 0.1 0
0.075 0.1 0
0.05 0.125 0
0.075 0.125 0
0.075 0.1 0
0.1 0.1 0
0.075 0.125 0
0.1 0.125 0
0.05 0.125 0
0.075 0.125 0
0.05 0.15 0
0.075 0.15 0
0.075 0.125 0
0.1 0.125 0
0.075 0.15 0
0.1 0.15 0
0 0.15 0
0.025 0.15 0
0 0.175 0
0.025 0.175 0
0.025 0.15 0
0.05 0.15 0
0.025 0.175 0
0.05 0.175 0
0 0.175 0
0.025 0.175 0
0 0.2 0
0.025 0.2 0
0.025 0.175 0
0.05 0.175 0
0.025 0.2 0
0.05 0.2 0
0.05 0.15 0
0.075 0.15 0
0.05 0.175 0
0.075 0.175 0
0.075 0.15 0
0.1 0.15 0
0.075 0.175 0
0.1 0.175 0
0.05 0.175 0
0.075 0.175 0
0.05 0.2 0
0.075 0.2 0
0.075 0.175 0
0.1 0.175 0
0.075 0.2 0
0.1 0.2 0
0.1 0.1 0
0.125 0.1 0
0.1 0.125 0
0.125 0.125 0
0.125 0.1 0
0.15 0.1 0
0.125 0.125 0
0.15 0.125 0
0.1 0.125 0
0.125 0.125 0
0.1 0.15 0
0.125 0.15 0
0.125 0.125 0
0.15 0.125 0
0.125 0.15 0
0.15 0.15 0
0.15 0.1 0
0.175 0.1 0
0.15 0.125 0
0.175 0.125 0
0.175 0.1 0
0.2 0.1 0
0.175 0.125 0
0.2 0.125 0
0.15 0.125 0
0.175 0.125 0
0.15 0.15 0
0.175 0.15 0
0.175 0.125 0
0.2 0.125 0
0.175 0.15 0
0.2 0.15 0
0.1 0.15 0
0.125 0.15 0
0.1 0.175 0
0.125 0.175 0
0.125 0.15 0
0.15 0.15 0
0.125 0.175 0
0.15 0.175 0
0.1 0.175 0
0.125 0.175 0
0.1 0.2 0
0.125 0.2 0
0.125 0.175 0
0.15 0.175 0
0.125 0.2 0
0.15 0.2 0
0.15 0.15 0
0.175 0.15 0
0.15 0.175 0
0.175 0.175 0
0.175 0.15 0
0.2 0.15 0
0.175 0.175 0
0.2 0.175 0
0.15 0.175 0
0.175 0.175 0
0.15 0.2 0
0.175 0.2 0
0.175 0.175 0
0.2 0.175 0
0.175 0.2 0
0.2 0.2 0
0 0.2 0
0.025 0.2 0
0 0.225 0
0.025 0.225 0
0.025 0.2 0
0.05 0.2 0
0.025 0.225 0
0.05 0.225 0
0 0.225 0
0.025 0.225 0
0 0.25 0
0.025 0.25 0
0.025 0.225 0
0.05 0.225 0
0.025 0.25 0
0.05 0.25 0
0.05 0.2 0
0.075 0.2 0
0.05 0.225 0
0.075 0.225 0
0.075 0.2 0
0.1 0.2 0
0.075 0.225 0
0.1 0.225 0
0.05 0.225 0
0.075 0.225 0
0.05 0.25 0
0.075 0.25 0
0.075 0.225 0
0.1 0.225 0
0.075 0.25 0
0.1 0.25 0
0 0.25 0
0.025 0.25 0
0 0.275 0
0.025 0.275 0
0.025 0.25 0
0.05 0.25 0
0.025 0.275 0
0.05 0.275 0
0 0.275 0
0.025 0.275 0
0 0.3 0
0.025 0.3 0
0.025 0.275 0
0.05 0.275 0
0.025 0.3 0
0.05 0.3 0
0.05 0.25 0
0.075 0.25 0
0.05 0.275 0
0.075 0.275 0
0.075 0.25 0
0.1 0.25 0
0.075 0.275 0
0.1 0.275 0
0.05 0.275 0
0.075 0.275 0
0.05 0.3 0
0.075 0.3 0
0.075 0.275 0
0.1 0.275 0
0.075 0.3 0
0.1 0.3 0
0.1 0.2 0
0.125 0.2 0
0.1 0.225 0
0.125 0.225 0
0.125 0.2 0
0.15 0.2 0
0.125 0.225 0
0.15 0.225 0
0.1 0.225 0
0.125 0.225 0
0.1 0.25 0
0.125 0.25 0
0.125 0.225 0
0.15 0.225 0
0.125 0.25 0
0.15 0.25 0
0.15 0.2 0
0.175 0.2 0
0.15 0.225 0
0.175 0.225 0
0.175 0.2 0
0.2 0.2 0
0.175 0.225 0
0.2 0.225 0
0.15 0.225 0
0.175 0.225 0
0.15 0.25 0
0.175 0.25 0
0.175 0.225 0
0.2 0.225 0
0.175 0.25 0
0.2 0.25 0
0.1 0.25 0
0.125 0.25 0
0.1 0.275 0
0.125 0.275 0
0.125 0.25 0
0.15 0.25 0
0.125 0.275 0
0.15 0.275 0
0.1 0.275 0
0.125 0.275 0
0.1 0.3 0
0.125 0.3 0
0.125 0.275 0
0.15 0.275 0
0.125 0.3 0
0.15 0.3 0
0.15 0.25 0
0.175 0.25 0
0.15 0.275 0
0.175 0.275 0
0.175 0.25 0
0.2 0.25 0
0.175 0.275 0
0.2 0.275 0
0.15 0.275 0
0.175 0.275 0
0.15 0.3 0
0.175 0.3 0
0.175 0.275 0
0.2 0.275 0
0.175 0.3 0
0.2 0.3 0
0 0.3 0
0.025 0.3 0
0 0.325 0
0.025 0.325 0
0.025 0.3 0
0.05 0.3 0
0.025 0.325 0
0.05 0.325 0
0 0.325 0
0.025 0.325 0
0 0.35 0
0.025 0.35 0
0.025 0.325 0
0.05 0.325 0
0.025 0.35 0
0.05 0.35 0
0.05 0.3 0
0.075 0.3 0
0.05 0.325 0
0.075 0.325 0
0.075 0.3 0
0.1 0.3 0
0.075 0.325 0
0.1 0.325 0
0.05 0.325 0
0.075 0.325 0
0.05 0.35 0
0.075 0.35 0
0.075 0.325 0
0.1 0.325 0
0.075 0.35 0
0.1 0.35 0
0 0.35 0
0.025 0.35 0
0 0.375 0
0.025 0.375 0
0.025 0.35 0
0.05 0.35 0
0.025 0.375 0
0.05 0.375 0
0 0.375 0
0.025 0.375 0
0 0.4 0
0.025 0.4 0
0.025 0.375 0
0.05 0.375 0
0.025 0.4 0
0.05 0.4 0
0.05 0.35 0
0.075 0.35 0
0.05 0.375 0
0.075 0.375 0
0.075 0.35 0
0.1 0.35 0
0.075 0.375 0
0.1 0.375 0
0.05 0.375 0
0.075 0.375 0
0.05 0.4 0
0.075 0.4 0
0.075 0.375 0
0.1 0.375 0
0.075 0.4 0
0.1 0.4 0
0.1 0.3 0
0.125 0.3 0
0.1 0.325 0
0.125 0.325 0
0.125 0.3 0
0.15 0.3 0
0.125 0.325 0
0.15 0.325 0
0.1 0.325 0
0.125 0.325 0
0.1 0.35 0
0.125 0.35 0
0.125 0.325 0
0.15 0.325 0
0.125 0.35 0
0.15 0.35 0
0.15 0.3 0
0.175 0.3 0
0.15 0.325 0
0.175 0.325 0
0.175 0.3 0
0.2 0.3 0
0.175 0.325 0
0.2 0.325 0
0.15 0.325 0
0.175 0.325 0
0.15 0.35 0
0.175 0.35 0
0.175 0.325 0
0.2 0.325 0
0.175 0.35 0
0.2 0.35 0
0.1 0.35 0
0.125 0.35 0
0.1 0.375 0
0.125 0.375 0
0.125 0.35 0
0.15 0.35 0
0.125 0.375 0
0.15 0.375 0
0.1 0.375 0
0.125 0.375 0
0.1 0.4 0
0.125 0.4 0
0.125 0.375 0
0.15 0.375 0
0.125 0.4 0
0.15 0.4 0
0.15 0.35 0
0.175 0.35 0
0.15 0.375 0
0.175 0.375 0
0.175 0.35 0
0.2 0.35 0
0.175 0.375 0
0.2 0.375 0
0.15 0.375 0
0.175 0.375 0
0.15 0.4 0
0.175 0.4 0
0.175 0.375 0
0.2 0.375 0
0.175 0.4 0
0.2 0.4 0
0 0.4 0
0.025 0.4 0
0 0.425 0
0.025 0.425 0
0.025 0.4 0
0.05 0.4 0
0.025 0.425 0
0.05 0.425 0
0 0.425 0
0.025 0.425 0
0 0.45 0
0.025 0.45 0
0.025 0.425 0
0.05 0.425 0
0.025 0.45 0
0.05 0.45 0
0.05 0.4 0
0.075 0.4 0
0.05 0.425 0
0.075 0.425 0
0.075 0.4 0
0.1 0.4 0
0.075 0.425 0
0.1 0.425 0
0.05 0.425 0
0.075 0.425 0
0.05 0.45 0
0.075 0.45 0
0.075 0.425 0
0.1 0.425 0
0.075 0.45 0
0.1 0.45 0
0 0.45 0
0.025 0.45 0
0 0.475 0
0.025 0.475 0
0.025 0.45 0
0.05 0.45 0
0.025 0.475 0
0.05 0.475 0
0 0.475 0
0.025 0.475 0
0 0.5 0
0.025 0.5 0
0.025 0.475 0
0.05 0.475 0
0.025 0.5 0
0.05 0.5 0
0.05 0.45 0
0.075 0.45 0
0.05 0.475 0
0.075 0.475 0
0.075 0.45 0
0.1 0.45 0
0.075 0.475 0
0.1 0.475 0
0.05 0.475 0
0.075 0.475 0
0.05 0.5 0
0.075 0.5 0
0.075 0.475 0
0.1 0.475 0
0.075 0.5 0
0.1 0.5 0
0.1 0.4 0
0.125 0.4 0
0.1 0.425 0
0.125 0.425 0
0.125 0.4 0
0.15 0.4 0
0.125 0.425 0
0.15 0.425 0
0.1 0.425 0
0.125 0.425 0
0.1 0.45 0
0.125 0.45 0
0.125 0.425 0
0.15 0.425 0
0.125 0.45 0
0.15 0.45 0
0.15 0.4 0
0.175 0.4 0
0.15 0.425 0
0.175 0.425 0
0.175 0.4 0
0.2 0.4 0
0.175 0.425 0
0.2 0.425 0
0.15 0.425 0
0.175 0.425 0
0.15 0.45 0
0.175 0.45 0
0.175 0.425 0
0.2 0.425 0
0.175 0.45 0
0.2 0.45 0
0.1 0.45 0
0.125 0.45 0
0.1 0.475 0
0.125 0.475 0
0.125 0.45 0
0.15 0.45 0
0.125 0.475 0
0.15 0.475 0
0.1 0.475 0
0.125 0.475 0
0.1 0.5 0
0.125 0.5 0
0.125 0.475 0
0.15 0.475 0
0.125 0.5 0
0.15 0.5 0
0.15 0.45 0
0.175 0.45 0
0.15 0.475 0
0.175 0.475 0
0.175 0.45 0
0.2 0.45 0
0.175 0.475 0
0.2 0.475 0
0.15 0.475 0
0.175 0.475 0
0.15 0.5 0
0.175 0.5 0
0.175 0.475 0
0.2 0.475 0
0.175 0.5 0
0.2 0.5 0
0 0.5 0
0.025 0.5 0
0 0.525 0
0.025 0.525 0
0.025 0.5 0
0.05 0.5 0
0.025 0.525 0
0.05 0.525 0
0 0.525 0
0.025 0.525 0
0 0.55 0
0.025 0.55 0
0.025 0.525 0
0.05 0.525 0
0.025 0.55 0
0.05 0.55 0
0.05 0.5 0
0.075 0.5 0
0.05 0.525 0
0.075 0.525 0
0.075 0.5 0
0.1 0.5 0
0.075 0.525 0
0.1 0.525 0
0.05 0.525 0
0.075 0.525 0
0.05 0.55 0
0.075 0.55 0
0.075 0.525 0
0.1 0.525 0
0.075 0.55 0
0.1 0.55 0
0 0.55 0
0.025 0.55 0
0 0.575 0
0.025 0.575 0
0.025 0.55 0
0.05 0.55 0
0.025 0.575 0
0.05 0.575 0
0 0.575 0
0.025 0.575 0
0 0.6 0
0.025 0.6 0
0.025 0.575 0
0.05 0.575 0
0.025 0.6 0
0.05 0.6 0
0.05 0.55 0
0.075 0.55 0
0.05 0.575 0
0.075 0.575 0
0.075 0.55 0
0.1 0.55 0
0.075 0.575 0
0.1 0.575 0
0.05 0.575 0
0.075 0.575 0
0.05 0.6 0
0.075 0.6 0
0.075 0.575 0
0.1 0.575 0
0.075 0.6 0
0.1 0.6 0
0.1 0.5 0
0.125 0.5 0
0.1 0.525 0
0.125 0.525 0
0.125 0.5 0
0.15 0.5 0
0.125 0.525 0
0.15 0.525 0
0.1 0.525 0
0.125 0.525 0
0.1 0.55 0
0.125 0.55 0
0.125 0.525 0
0.15 0.525 0
0.125 0.55 0
0.15 0.55 0
0.15 0.5 0
0.175 0.5 0
0.15 0.525 0
0.175 0.525 0
0.175 0.5 0
0.2 0.5 0
0.175 0.525 0
0.2 0.525 0
0.15 0.525 0
0.175 0.525 0
0.15 0.55 0
0.175 0.55 0
0.175 0.525 0
0.2 0.525 0
0.175 0.55 0
0.2 0.55 0
0.1 0.55 0
0.125 0.55 0
0.1 0.575 0
0.125 0.575 0
0.125 0.55 0
0.15 0.55 0
0.125 0.575 0
0.15 0.575 0
0.1 0.575 0
0.125 0.575 0
0.1 0.6 0
0.125 0.6 0
0.125 0.575 0
0.15 0.575 0
0.125 0.6 0
0.15 0.6 0
0.15 0.55 0
0.175 0.55 0
0.15 0.575 0
0.175 0.575 0
0.175 0.55 0
0.2 0.55 0
0.175 0.575 0
0.2 0.575 0
0.15 0.575 0
0.175 0.575 0
0.15 0.6 0
0.175 0.6 0
0.175 0.575 0
0.2 0.575 0
0.175 0.6 0
0.2 0.6 0
0 0.6 0
0.025 0.6 0
0 0.625 0
0.025 0.625 0
0.025 0.6 0
0.05 0.6 0
0.025 0.625 0
0.05 0.625 0
0 0.625 0
0.025 0.625 0
0 0.65 0
0.025 0.65 0
0.025 0.625 0
0.05 0.625 0
0.025 0.65 0
0.05 0.65 0
0.05 0.6 0
0.075 0.6 0
0.05 0.625 0
0.075 0.625 0
0.075 0.6 0
0.1 0.6 0
0.075 0.625 0
0.1 0.625 0
0.05 0.625 0
0.075 0.625 0
0.05 0.65 0
0.075 0.65 0
0.075 0.625 0
0.1 0.625 0
[...]
POINT_DATA 6400
VECTORS velocity double
0 0 0
0.0784591 0 0
0 -0.0784591 0
0.0782163 -0.0782181 0
0.0784591 0 0
0.156434 0 0
0.0782163 -0.0782181 0
0.155951 -0.0774945 0
0 -0.0784591 0
0.0782163 -0.0782181 0
0 -0.156434 0
0.077493 -0.155953 0
0.0782163 -0.0782181 0
0.155951 -0.0774945 0
0.077493 -0.155953 0
0.154507 -0.15451 0
0.156434 0 0
0.233445 0 0
0.155951 -0.0774945 0
0.232725 -0.076292 0
0.233445 0 0
0.309017 0 0
0.232725 -0.076292 0
0.308063 -0.0746204 0
0.155951 -0.0774945 0
0.232725 -0.076292 0
0.154507 -0.15451 0
0.23057 -0.152114 0
0.232725 -0.076292 0
0.308063 -0.0746204 0
0.23057 -0.152114 0
0.305211 -0.14878 0
0 -0.156434 0
0.077493 -0.155953 0
0 -0.233445 0
0.0762904 -0.232727 0
0.077493 -0.155953 0
0.154507 -0.15451 0
0.0762904 -0.232727 0
0.152111 -0.230573 0
0 -0.233445 0
0.0762904 -0.232727 0
0 -0.309017 0
0.0746192 -0.308065 0
0.0762904 -0.232727 0
0.152111 -0.230573 0
0.0746192 -0.308065 0
0.148777 -0.305214 0
0.154507 -0.15451 0
0.23057 -0.152114 0
0.152111 -0.230573 0
0.226994 -0.226997 0
0.23057 -0.152114 0
0.305211 -0.14878 0
0.226994 -0.226997 0
0.300478 -0.222022 0
0.152111 -0.230573 0
0.226994 -0.226997 0
0.148777 -0.305214 0
0.222019 -0.300481 0
0.226994 -0.226997 0
0.300478 -0.222022 0
0.222019 -0.300481 0
0.293892 -0.293895 0
0.309017 0 0
0.382683 0 0
0.308063 -0.0746204 0
0.381503 -0.0724874 0
0.382683 0 0
0.45399 0 0
0.381503 -0.0724874 0
0.45259 -0.0699088 0
0.308063 -0.0746204 0
0.381503 -0.0724874 0
0.305211 -0.14878 0
0.377971 -0.144528 0
0.381503 -0.0724874 0
0.45259 -0.0699088 0
0.377971 -0.144528 0
0.4484 -0.139386 0
0.45399 0 0
0.522499 0 0
0.45259 -0.0699088 0
0.520887 -0.066898 0
0.522499 0 0
0.587785 0 0
0.520887 -0.066898 0
0.585972 -0.0634758 0
0.45259 -0.0699088 0
0.520887 -0.066898 0
0.4484 -0.139386 0
0.516064 -0.133384 0
0.520887 -0.066898 0
0.585972 -0.0634758 0
0.516064 -0.133384 0
0.580547 -0.126559 0
0.305211 -0.14878 0
0.377971 -0.144528 0
0.300478 -0.222022 0
0.372108 -0.215677 0
0.377971 -0.144528 0
0.4484 -0.139386 0
0.372108 -0.215677 0
0.441445 -0.208003 0
0.300478 -0.222022 0
0.372108 -0.215677 0
0.293892 -0.293895 0
0.363952 -0.285496 0
0.372108 -0.215677 0
0.441445 -0.208003 0
0.363952 -0.285496 0
0.431769 -0.275338 0
0.4484 -0.139386 0
0.516064 -0.133384 0
0.441445 -0.208003 0
0.50806 -0.199046 0
0.516064 -0.133384 0
0.580547 -0.126559 0
0.50806 -0.199046 0
0.571543 -0.188863 0
0.441445 -0.208003 0
0.50806 -0.199046 0
0.431769 -0.275338 0
0.496924 -0.263482 0
0.50806 -0.199046 0
0.571543 -0.188863 0
0.496924 -0.263482 0
0.559015 -0.250001 0
0 -0.309017 0
0.0746192 -0.308065 0
0 -0.382683 0
0.0724861 -0.381505 0
0.0746192 -0.308065 0
0.148777 -0.305214 0
0.0724861 -0.381505 0
0.144526 -0.377973 0
0 -0.382683 0
0.0724861 -0.381505 0
0 -0.45399 0
0.0699079 -0.452592 0
0.0724861 -0.381505 0
0.144526 -0.377973 0
0.0699079 -0.452592 0
0.139384 -0.448403 0
0.148777 -0.305214 0
0.222019 -0.300481 0
0.144526 -0.377973 0
0.215675 -0.372112 0
0.222019 -0.300481 0
0.293892 -0.293895 0
0.215675 -0.372112 0
0.285493 -0.363955 0
0.144526 -0.377973 0
0.215675 -0.372112 0
0.139384 -0.448403 0
0.208001 -0.441448 0
0.215675 -0.372112 0
0.285493 -0.363955 0
0.208001 -0.441448 0
0.275335 -0.431772 0
0 -0.45399 0
0.0699079 -0.452592 0
0 -0.522499 0
0.0668968 -0.520889 0
0.0699079 -0.452592 0
0.139384 -0.448403 0
0.0668968 -0.520889 0
0.133382 -0.516067 0
0 -0.522499 0
0.0668968 -0.520889 0
0 -0.587785 0
0.0634751 -0.585974 0
0.0668968 -0.520889 0
0.133382 -0.516067 0
0.0634751 -0.585974 0
0.126558 -0.58055 0
0.139384 -0.448403 0
0.208001 -0.441448 0
0.133382 -0.516067 0
0.199044 -0.508063 0
0.208001 -0.441448 0
0.275335 -0.431772 0
0.199044 -0.508063 0
0.263479 -0.496927 0
0.133382 -0.516067 0
0.199044 -0.508063 0
0.126558 -0.58055 0
0.188861 -0.571546 0
0.199044 -0.508063 0
0.263479 -0.496927 0
0.188861 -0.571546 0
0.249999 -0.559018 0
0.293892 -0.293895 0
0.363952 -0.285496 0
0.285493 -0.363955 0
0.353552 -0.353555 0
0.363952 -0.285496 0
0.431769 -0.275338 0
0.353552 -0.353555 0
0.419431 -0.340975 0
0.285493 -0.363955 0
0.353552 -0.353555 0
0.275335 -0.431772 0
0.340972 -0.419434 0
0.353552 -0.353555 0
0.419431 -0.340975 0
0.340972 -0.419434 0
0.404507 -0.40451 0
0.431769 -0.275338 0
0.496924 -0.263482 0
0.419431 -0.340975 0
0.482724 -0.326292 0
0.496924 -0.263482 0
0.559015 -0.250001 0
0.482724 -0.326292 0
0.54304 -0.309598 0
0.419431 -0.340975 0
0.482724 -0.326292 0
0.404507 -0.40451 0
0.465547 -0.387091 0
0.482724 -0.326292 0
0.54304 -0.309598 0
0.465547 -0.387091 0
0.523718 -0.367287 0
0.275335 -0.431772 0
0.340972 -0.419434 0
0.263479 -0.496927 0
0.32629 -0.482727 0
0.340972 -0.419434 0
0.404507 -0.40451 0
0.32629 -0.482727 0
0.387089 -0.46555 0
0.263479 -0.496927 0
0.32629 -0.482727 0
0.249999 -0.559018 0
0.309596 -0.543044 0
0.32629 -0.482727 0
0.387089 -0.46555 0
0.309596 -0.543044 0
0.367284 -0.523721 0
0.404507 -0.40451 0
0.465547 -0.387091 0
0.387089 -0.46555 0
0.445501 -0.445504 0
0.465547 -0.387091 0
0.523718 -0.367287 0
0.445501 -0.445504 0
0.501166 -0.42271 0
0.387089 -0.46555 0
0.445501 -0.445504 0
0.367284 -0.523721 0
0.422707 -0.501169 0
0.445501 -0.445504 0
0.501166 -0.42271 0
0.422707 -0.501169 0
0.475525 -0.475528 0
0 -0.587785 0
0.0634751 -0.585974 0
0 -0.649448 0
0.0596602 -0.647447 0
0.0634751 -0.585974 0
0.126558 -0.58055 0
0.0596602 -0.647447 0
0.118953 -0.641453 0
0 -0.649448 0
0.0596602 -0.647447 0
0 -0.707107 0
0.0554793 -0.704928 0
0.0596602 -0.647447 0
0.118953 -0.641453 0
0.0554793 -0.704928 0
0.110615 -0.698402 0
0.126558 -0.58055 0
0.188861 -0.571546 0
0.118953 -0.641453 0
0.177513 -0.631505 0
0.188861 -0.571546 0
0.249999 -0.559018 0
0.177513 -0.631505 0
0.234977 -0.617663 0
0.118953 -0.641453 0
0.177513 -0.631505 0
0.110615 -0.698402 0
0.16507 -0.68757 0
0.177513 -0.631505 0
0.234977 -0.617663 0
0.16507 -0.68757 0
0.218507 -0.672499 0
0 -0.707107 0
0.0554793 -0.704928 0
0 -0.760406 0
0.0509546 -0.758063 0
0.0554793 -0.704928 0
0.110615 -0.698402 0
0.0509546 -0.758063 0
0.101596 -0.751045 0
0 -0.760406 0
0.0509546 -0.758063 0
0 -0.809017 0
0.0461174 -0.806524 0
0.0509546 -0.758063 0
0.101596 -0.751045 0
0.0461174 -0.806524 0
0.0919494 -0.799057 0
0.110615 -0.698402 0
0.16507 -0.68757 0
0.101596 -0.751045 0
0.15161 -0.739396 0
0.16507 -0.68757 0
0.218507 -0.672499 0
0.15161 -0.739396 0
0.200689 -0.723189 0
0.101596 -0.751045 0
0.15161 -0.739396 0
0.0919494 -0.799057 0
0.137215 -0.786664 0
0.15161 -0.739396 0
0.200689 -0.723189 0
0.137215 -0.786664 0
0.181634 -0.76942 0
0.249999 -0.559018 0
0.309596 -0.543044 0
0.234977 -0.617663 0
0.290993 -0.600012 0
0.309596 -0.543044 0
0.367284 -0.523721 0
0.290993 -0.600012 0
0.345215 -0.578662 0
0.234977 -0.617663 0
0.290993 -0.600012 0
0.218507 -0.672499 0
0.270596 -0.653281 0
0.290993 -0.600012 0
0.345215 -0.578662 0
0.270596 -0.653281 0
0.321017 -0.630036 0
0.367284 -0.523721 0
0.422707 -0.501169 0
0.345215 -0.578662 0
0.397308 -0.553745 0
0.422707 -0.501169 0
0.475525 -0.475528 0
0.397308 -0.553745 0
0.446952 -0.525413 0
0.345215 -0.578662 0
0.397308 -0.553745 0
0.321017 -0.630036 0
0.369459 -0.602906 0
0.397308 -0.553745 0
0.446952 -0.525413 0
0.369459 -0.602906 0
0.415623 -0.572059 0
0.218507 -0.672499 0
0.270596 -0.653281 0
0.200689 -0.723189 0
0.248531 -0.702523 0
0.270596 -0.653281 0
0.321017 -0.630036 0
0.248531 -0.702523 0
0.29484 -0.677525 0
0.200689 -0.723189 0
0.248531 -0.702523 0
0.181634 -0.76942 0
0.224934 -0.747433 0
0.248531 -0.702523 0
0.29484 -0.677525 0
0.224934 -0.747433 0
0.266846 -0.720837 0
0.321017 -0.630036 0
0.369459 -0.602906 0
0.29484 -0.677525 0
0.339332 -0.64835 0
0.369459 -0.602906 0
0.415623 -0.572059 0
0.339332 -0.64835 0
0.381732 -0.615178 0
0.29484 -0.677525 0
0.339332 -0.64835 0
0.266846 -0.720837 0
0.307113 -0.689797 0
0.339332 -0.64835 0
0.381732 -0.615178 0
0.307113 -0.689797 0
0.345487 -0.654505 0
0 -0.809017 0
0.0461174 -0.806524 0
0 -0.85264 0
0.0409943 -0.850012 0
0.0461174 -0.806524 0
0.0919494 -0.799057 0
0.0409943 -0.850012 0
0.0817364 -0.842143 0
0 -0.85264 0
0.0409943 -0.850012 0
0 -0.891007 0
0.03562 -0.88826 0
0.0409943 -0.850012 0
0.0817364 -0.842143 0
0.03562 -0.88826 0
0.0710193 -0.880036 0
0.0919494 -0.799057 0
0.137215 -0.786664 0
0.0817364 -0.842143 0
0.121974 -0.829081 0
0.137215 -0.786664 0
0.181634 -0.76942 0
0.121974 -0.829081 0
0.161459 -0.810907 0
0.0817364 -0.842143 0
0.121974 -0.829081 0
0.0710193 -0.880036 0
0.105981 -0.866387 0
0.121974 -0.829081 0
0.161459 -0.810907 0
0.105981 -0.866387 0
0.140289 -0.847395 0
0 -0.891007 0
0.03562 -0.88826 0
0 -0.92388 0
0.0300245 -0.921031 0
0.03562 -0.88826 0
0.0710193 -0.880036 0
0.0300245 -0.921031 0
0.0598645 -0.912504 0
0 -0.92388 0
0.0300245 -0.921031 0
0 -0.951057 0
0.0242454 -0.948124 0
0.0300245 -0.921031 0
0.0598645 -0.912504 0
0.0242454 -0.948124 0
0.0483405 -0.939346 0
0.0710193 -0.880036 0
0.105981 -0.866387 0
0.0598645 -0.912504 0
0.0893348 -0.898351 0
0.105981 -0.866387 0
0.140289 -0.847395 0
0.0893348 -0.898351 0
0.118254 -0.878659 0
0.0598645 -0.912504 0
0.0893348 -0.898351 0
0.0483405 -0.939346 0
0.0721378 -0.924776 0
0.0893348 -0.898351 0
0.118254 -0.878659 0
0.0721378 -0.924776 0
0.0954902 -0.904505 0
0.181634 -0.76942 0
0.224934 -0.747433 0
0.161459 -0.810907 0
0.199949 -0.787734 0
0.224934 -0.747433 0
0.266846 -0.720837 0
0.199949 -0.787734 0
0.237206 -0.759705 0
0.161459 -0.810907 0
0.199949 -0.787734 0
0.140289 -0.847395 0
0.173732 -0.823179 0
0.199949 -0.787734 0
0.237206 -0.759705 0
0.173732 -0.823179 0
0.206105 -0.793889 0
0.266846 -0.720837 0
0.307113 -0.689797 0
0.237206 -0.759705 0
0.273001 -0.726991 0
0.307113 -0.689797 0
0.345487 -0.654505 0
0.273001 -0.726991 0
0.307113 -0.689796 0
0.237206 -0.759705 0
0.273001 -0.726991 0
0.206105 -0.793889 0
0.237206 -0.759703 0
0.273001 -0.726991 0
0.307113 -0.689796 0
0.237206 -0.759703 0
0.266845 -0.720834 0
0.140289 -0.847395 0
0.173732 -0.823179 0
0.118254 -0.878659 0
0.146445 -0.853549 0
0.173732 -0.823179 0
0.206105 -0.793889 0
0.146445 -0.853549 0
0.173732 -0.823178 0
0.118254 -0.878659 0
0.146445 -0.853549 0
0.0954902 -0.904505 0
0.118254 -0.878657 0
0.146445 -0.853549 0
0.173732 -0.823178 0
0.118254 -0.878657 0
0.140288 -0.847392 0
0.206105 -0.793889 0
0.237206 -0.759703 0
0.173732 -0.823178 0
0.199948 -0.787731 0
0.237206 -0.759703 0
0.266845 -0.720834 0
0.199948 -0.787731 0
0.224932 -0.747428 0
0.173732 -0.823178 0
0.199948 -0.787731 0
0.140288 -0.847392 0
0.161458 -0.810903 0
0.199948 -0.787731 0
0.224932 -0.747428 0
0.161458 -0.810903 0
0.181632 -0.769414 0
0 -0.951057 0
0.0242454 -0.948124 0
0 -0.97237 0
0.0183155 -0.969372 0
0.0242454 -0.948124 0
0.0483405 -0.939346 0
0.0183155 -0.969372 0
0.0365186 -0.960397 0
0 -0.97237 0
0.0183155 -0.969372 0
0 -0.987688 0
0.0122739 -0.984643 0
0.0183155 -0.969372 0
0.0365186 -0.960397 0
0.0122739 -0.984643 0
0.0244714 -0.975526 0
0.0483405 -0.939346 0
0.0721378 -0.924776 0
0.0365186 -0.960397 0
0.054496 -0.9455 0
0.0721378 -0.924776 0
0.0954902 -0.904505 0
0.054496 -0.9455 0
0.0721374 -0.924775 0
0.0365186 -0.960397 0
0.054496 -0.9455 0
0.0244714 -0.975526 0
0.0365183 -0.960395 0
0.054496 -0.9455 0
0.0721374 -0.924775 0
0.0365183 -0.960395 0
0.0483399 -0.939343 0
0 -0.987688 0
0.0122739 -0.984643 0
0 -0.996917 0
0.00615556 -0.993843 0
0.0122739 -0.984643 0
0.0244714 -0.975526 0
0.00615556 -0.993843 0
0.0122735 -0.984641 0
0 -0.996917 0
0.00615556 -0.993843 0
0 -1 0
2.0166e-07 -0.996916 0
0.00615556 -0.993843 0
0.0122735 -0.984641 0
2.0166e-07 -0.996916 0
-1.97624e-07 -0.987686 0
0.0244714 -0.975526 0
0.0365183 -0.960395 0
0.0122735 -0.984641 0
0.0183154 -0.969369 0
0.0365183 -0.960395 0
0.0483399 -0.939343 0
0.0183154 -0.969369 0
0.0242444 -0.94812 0
0.0122735 -0.984641 0
0.0183154 -0.969369 0
-1.97624e-07 -0.987686 0
-3.42756e-07 -0.972366 0
0.0183154 -0.969369 0
0.0242444 -0.94812 0
-3.42756e-07 -0.972366 0
-5.26023e-07 -0.951051 0
0.0954902 -0.904505 0
0.118254 -0.878657 0
0.0721374 -0.924775 0
0.089334 -0.898347 0
0.118254 -0.878657 0
0.140288 -0.847392 0
0.089334 -0.898347 0
0.10598 -0.866382 0
0.0721374 -0.924775 0
0.089334 -0.898347 0
0.0483399 -0.939343 0
0.0598635 -0.912499 0
0.089334 -0.898347 0
0.10598 -0.866382 0
0.0598635 -0.912499 0
0.0710181 -0.88003 0
0.140288 -0.847392 0
0.161458 -0.810903 0
0.10598 -0.866382 0
0.121972 -0.829075 0
0.161458 -0.810903 0
0.181632 -0.769414 0
0.121972 -0.829075 0
0.137213 -0.786656 0
0.10598 -0.866382 0
0.121972 -0.829075 0
0.0710181 -0.88003 0
0.0817348 -0.842135 0
0.121972 -0.829075 0
0.137213 -0.786656 0
0.0817348 -0.842135 0
0.0919476 -0.799048 0
0.0483399 -0.939343 0
0.0598635 -0.912499 0
0.0242444 -0.94812 0
0.030024 -0.921025 0
0.0598635 -0.912499 0
0.0710181 -0.88003 0
0.030024 -0.921025 0
0.0356184 -0.888253 0
0.0242444 -0.94812 0
0.030024 -0.921025 0
-5.26023e-07 -0.951051 0
-6.71745e-07 -0.923873 0
0.030024 -0.921025 0
0.0356184 -0.888253 0
-6.71745e-07 -0.923873 0
-7.84631e-07 -0.890999 0
0.0710181 -0.88003 0
0.0817348 -0.842135 0
0.0356184 -0.888253 0
0.0409933 -0.850004 0
0.0817348 -0.842135 0
0.0919476 -0.799048 0
0.0409933 -0.850004 0
0.0461155 -0.806514 0
0.0356184 -0.888253 0
0.0409933 -0.850004 0
-7.84631e-07 -0.890999 0
-8.66885e-07 -0.852632 0
0.0409933 -0.850004 0
0.0461155 -0.806514 0
-8.66885e-07 -0.852632 0
-9.13254e-07 -0.809008 0
0 -1 0
2.0166e-07 -0.996916 0
0 -0.996917 0
-0.00615599 -0.993843 0
2.0166e-07 -0.996916 0
-1.97624e-07 -0.987686 0
-0.00615599 -0.993843 0
-0.0122738 -0.984641 0
0 -0.996917 0
-0.00615599 -0.993843 0
0 -0.987688 0
-0.0122735 -0.984642 0
-0.00615599 -0.993843 0
-0.0122738 -0.984641 0
-0.0122735 -0.984642 0
-0.0244718 -0.975525 0
-1.97624e-07 -0.987686 0
-3.42756e-07 -0.972366 0
-0.0122738 -0.984641 0
-0.0183161 -0.969368 0
-3.42756e-07 -0.972366 0
-5.26023e-07 -0.951051 0
-0.0183161 -0.969368 0
-0.0242455 -0.948119 0
-0.0122738 -0.984641 0
-0.0183161 -0.969368 0
-0.0244718 -0.975525 0
-0.0365189 -0.960394 0
-0.0183161 -0.969368 0
-0.0242455 -0.948119 0
-0.0365189 -0.960394 0
-0.0483409 -0.939342 0
0 -0.987688 0
-0.0122735 -0.984642 0
0 -0.97237 0
-0.018316 -0.969371 0
-0.0122735 -0.984642 0
-0.0244718 -0.975525 0
-0.018316 -0.969371 0
-0.0365188 -0.960395 0
0 -0.97237 0
-0.018316 -0.969371 0
0 -0.951057 0
-0.0242451 -0.948123 0
-0.018316 -0.969371 0
-0.0365188 -0.960395 0
-0.0242451 -0.948123 0
-0.0483408 -0.939344 0
-0.0244718 -0.975525 0
-0.0365189 -0.960394 0
-0.0365188 -0.960395 0
-0.0544966 -0.945499 0
-0.0365189 -0.960394 0
-0.0483409 -0.939342 0
-0.0544966 -0.945499 0
-0.0721384 -0.924773 0
-0.0365188 -0.960395 0
-0.0544966 -0.945499 0
-0.0483408 -0.939344 0
-0.0721383 -0.924774 0
-0.0544966 -0.945499 0
-0.0721384 -0.924773 0
-0.0721383 -0.924774 0
-0.0954911 -0.904503 0
-5.26023e-07 -0.951051 0
-6.71745e-07 -0.923873 0
-0.0242455 -0.948119 0
-0.0300253 -0.921025 0
-6.71745e-07 -0.923873 0
-7.84631e-07 -0.890999 0
-0.0300253 -0.921025 0
-0.03562 -0.888252 0
-0.0242455 -0.948119 0
-0.0300253 -0.921025 0
-0.0483409 -0.939342 0
-0.0598648 -0.912498 0
-0.0300253 -0.921025 0
-0.03562 -0.888252 0
-0.0598648 -0.912498 0
-0.0710196 -0.880029 0
-7.84631e-07 -0.890999 0
-8.66885e-07 -0.852632 0
-0.03562 -0.888252 0
-0.040995 -0.850003 0
-8.66885e-07 -0.852632 0
-9.13254e-07 -0.809008 0
-0.040995 -0.850003 0
-0.0461173 -0.806514 0
-0.03562 -0.888252 0
-0.040995 -0.850003 0
-0.0710196 -0.880029 0
-0.0817365 -0.842134 0
-0.040995 -0.850003 0
-0.0461173 -0.806514 0
-0.0817365 -0.842134 0
-0.0919494 -0.799047 0
-0.0483409 -0.939342 0
-0.0598648 -0.912498 0
-0.0721384 -0.924773 0
-0.0893353 -0.898346 0
-0.0598648 -0.912498 0
-0.0710196 -0.880029 0
-0.0893353 -0.898346 0
-0.105981 -0.86638 0
-0.0721384 -0.924773 0
-0.0893353 -0.898346 0
-0.0954911 -0.904503 0
-0.118255 -0.878655 0
-0.0893353 -0.898346 0
-0.105981 -0.86638 0
-0.118255 -0.878655 0
-0.14029 -0.84739 0
-0.0710196 -0.880029 0
-0.0817365 -0.842134 0
-0.105981 -0.86638 0
-0.121974 -0.829073 0
-0.0817365 -0.842134 0
-0.0919494 -0.799047 0
-0.121974 -0.829073 0
-0.137215 -0.786654 0
-0.105981 -0.86638 0
-0.121974 -0.829073 0
-0.14029 -0.84739 0
-0.16146 -0.8109 0
-0.121974 -0.829073 0
-0.137215 -0.786654 0
-0.16146 -0.8109 0
-0.181634 -0.769411 0
0 -0.951057 0
-0.0242451 -0.948123 0
0 -0.92388 0
-0.030025 -0.92103 0
-0.0242451 -0.948123 0
-0.0483408 -0.939344 0
-0.030025 -0.92103 0
-0.0598647 -0.912502 0
0 -0.92388 0
-0.030025 -0.92103 0
0 -0.891007 0
-0.0356196 -0.888258 0
-0.030025 -0.92103 0
-0.0598647 -0.912502 0
-0.0356196 -0.888258 0
-0.0710195 -0.880033 0
-0.0483408 -0.939344 0
-0.0721383 -0.924774 0
-0.0598647 -0.912502 0
-0.0893353 -0.898348 0
-0.0721383 -0.924774 0
-0.0954911 -0.904503 0
-0.0893353 -0.898348 0
-0.118255 -0.878656 0
-0.0598647 -0.912502 0
-0.0893353 -0.898348 0
-0.0710195 -0.880033 0
-0.105982 -0.866383 0
-0.0893353 -0.898348 0
-0.118255 -0.878656 0
-0.105982 -0.866383 0
-0.14029 -0.847392 0
0 -0.891007 0
-0.0356196 -0.888258 0
0 -0.85264 0
-0.0409946 -0.85001 0
-0.0356196 -0.888258 0
-0.0710195 -0.880033 0
-0.0409946 -0.85001 0
-0.0817365 -0.842139 0
0 -0.85264 0
-0.0409946 -0.85001 0
0 -0.809017 0
-0.0461171 -0.806521 0
-0.0409946 -0.85001 0
-0.0817365 -0.842139 0
-0.0461171 -0.806521 0
-0.0919496 -0.799054 0
-0.0710195 -0.880033 0
-0.105982 -0.866383 0
-0.0817365 -0.842139 0
-0.121974 -0.829077 0
-0.105982 -0.866383 0
-0.14029 -0.847392 0
-0.121974 -0.829077 0
-0.16146 -0.810904 0
-0.0817365 -0.842139 0
-0.121974 -0.829077 0
-0.0919496 -0.799054 0
-0.137215 -0.78666 0
-0.121974 -0.829077 0
-0.16146 -0.810904 0
-0.137215 -0.78666 0
-0.181635 -0.769416 0
-0.0954911 -0.904503 0
-0.118255 -0.878655 0
-0.118255 -0.878656 0
-0.146446 -0.853547 0
-0.118255 -0.878655 0
-0.14029 -0.84739 0
-0.146446 -0.853547 0
-0.173733 -0.823175 0
-0.118255 -0.878656 0
-0.146446 -0.853547 0
-0.14029 -0.847392 0
-0.173734 -0.823176 0
-0.146446 -0.853547 0
-0.173733 -0.823175 0
-0.173734 -0.823176 0
-0.206106 -0.793885 0
-0.14029 -0.84739 0
-0.16146 -0.8109 0
-0.173733 -0.823175 0
-0.19995 -0.787728 0
-0.16146 -0.8109 0
-0.181634 -0.769411 0
-0.19995 -0.787728 0
-0.224933 -0.747425 0
-0.173733 -0.823175 0
-0.19995 -0.787728 0
-0.206106 -0.793885 0
-0.237207 -0.7597 0
-0.19995 -0.787728 0
-0.224933 -0.747425 0
-0.237207 -0.7597 0
-0.266846 -0.720831 0
-0.14029 -0.847392 0
-0.173734 -0.823176 0
-0.16146 -0.810904 0
-0.19995 -0.787731 0
-0.173734 -0.823176 0
-0.206106 -0.793885 0
-0.19995 -0.787731 0
-0.237208 -0.759701 0
-0.16146 -0.810904 0
-0.19995 -0.787731 0
-0.181635 -0.769416 0
-0.224934 -0.747428 0
-0.19995 -0.787731 0
-0.237208 -0.759701 0
-0.224934 -0.747428 0
-0.266847 -0.720833 0
-0.206106 -0.793885 0
-0.237207 -0.7597 0
-0.237208 -0.759701 0
-0.273002 -0.726987 0
-0.237207 -0.7597 0
-0.266846 -0.720831 0
-0.273002 -0.726987 0
-0.307114 -0.689792 0
-0.237208 -0.759701 0
-0.273002 -0.726987 0
-0.266847 -0.720833 0
-0.307115 -0.689793 0
-0.273002 -0.726987 0
-0.307114 -0.689792 0
-0.307115 -0.689793 0
-0.345488 -0.654501 0
0 -0.809017 0
-0.0461171 -0.806521 0
0 -0.760406 0
-0.0509549 -0.75806 0
-0.0461171 -0.806521 0
-0.0919496 -0.799054 0
-0.0509549 -0.75806 0
-0.101596 -0.751041 0
0 -0.760406 0
-0.0509549 -0.75806 0
0 -0.707107 0
-0.055479 -0.704925 0
-0.0509549 -0.75806 0
-0.101596 -0.751041 0
-0.055479 -0.704925 0
-0.110616 -0.698398 0
-0.0919496 -0.799054 0
-0.137215 -0.78666 0
-0.101596 -0.751041 0
-0.15161 -0.739392 0
-0.137215 -0.78666 0
-0.181635 -0.769416 0
-0.15161 -0.739392 0
-0.20069 -0.723184 0
-0.101596 -0.751041 0
-0.15161 -0.739392 0
-0.110616 -0.698398 0
-0.16507 -0.687566 0
-0.15161 -0.739392 0
-0.20069 -0.723184 0
-0.16507 -0.687566 0
-0.218507 -0.672494 0
0 -0.707107 0
-0.055479 -0.704925 0
0 -0.649448 0
-0.0596606 -0.647444 0
-0.055479 -0.704925 0
-0.110616 -0.698398 0
-0.0596606 -0.647444 0
-0.118954 -0.64145 0
0 -0.649448 0
-0.0596606 -0.647444 0
0 -0.587785 0
-0.063475 -0.585972 0
-0.0596606 -0.647444 0
-0.118954 -0.64145 0
-0.063475 -0.585972 0
-0.126558 -0.580546 0
-0.110616 -0.698398 0
-0.16507 -0.687566 0
-0.118954 -0.64145 0
-0.177513 -0.6315 0
-0.16507 -0.687566 0
-0.218507 -0.672494 0
-0.177513 -0.6315 0
-0.234978 -0.617658 0
-0.118954 -0.64145 0
-0.177513 -0.6315 0