# vtk DataFile Version 3.0
#This file was generated by the deal.II library on 2026/6/8 at 18:29:08
ASCII
DATASET UNSTRUCTURED_GRID

POINTS 400 double
0 0 0
0.1 0 0
0 0.1 0
0.1 0.1 0
0.1 0 0
0.2 0 0
0.1 0.1 0
0.2 0.1 0
0 0.1 0
0.1 0.1 0
0 0.2 0
0.1 0.2 0
0.1 0.1 0
0.2 0.1 0
0.1 0.2 0
0.2 0.2 0
0 0.2 0
0.1 0.2 0
0 0.3 0
0.1 0.3 0
0.1 0.2 0
0.2 0.2 0
0.1 0.3 0
0.2 0.3 0
0 0.3 0
0.1 0.3 0
0 0.4 0
0.1 0.4 0
0.1 0.3 0
0.2 0.3 0
0.1 0.4 0
0.2 0.4 0
0 0.4 0
0.1 0.4 0
0 0.5 0
0.1 0.5 0
0.1 0.4 0
0.2 0.4 0
0.1 0.5 0
0.2 0.5 0
0 0.5 0
0.1 0.5 0
0 0.6 0
0.1 0.6 0
0.1 0.5 0
0.2 0.5 0
0.1 0.6 0
0.2 0.6 0
0 0.6 0
0.1 0.6 0
0 0.7 0
0.1 0.7 0
0.1 0.6 0
0.2 0.6 0
0.1 0.7 0
0.2 0.7 0
0 0.7 0
0.1 0.7 0
0 0.8 0
0.1 0.8 0
0.1 0.7 0
0.2 0.7 0
0.1 0.8 0
0.2 0.8 0
0 0.8 0
0.1 0.8 0
0 0.9 0
0.1 0.9 0
0.1 0.8 0
0.2 0.8 0
0.1 0.9 0
0.2 0.9 0
0 0.9 0
0.1 0.9 0
0 1 0
0.1 1 0
0.1 0.9 0
0.2 0.9 0
0.1 1 0
0.2 1 0
0.2 0 0
0.3 0 0
0.2 0.1 0
0.3 0.1 0
0.3 0 0
0.4 0 0
0.3 0.1 0
0.4 0.1 0
0.2 0.1 0
0.3 0.1 0
0.2 0.2 0
0.3 0.2 0
0.3 0.1 0
0.4 0.1 0
0.3 0.2 0
0.4 0.2 0
0.2 0.2 0
0.3 0.2 0
0.2 0.3 0
0.3 0.3 0
0.3 0.2 0
0.4 0.2 0
0.3 0.3 0
0.4 0.3 0
0.2 0.3 0
0.3 0.3 0
0.2 0.4 0
0.3 0.4 0
0.3 0.3 0
0.4 0.3 0
0.3 0.4 0
0.4 0.4 0
0.2 0.4 0
0.3 0.4 0
0.2 0.5 0
0.3 0.5 0
0.3 0.4 0
0.4 0.4 0
0.3 0.5 0
0.4 0.5 0
0.2 0.5 0
0.3 0.5 0
0.2 0.6 0
0.3 0.6 0
0.3 0.5 0
0.4 0.5 0
0.3 0.6 0
0.4 0.6 0
0.2 0.6 0
0.3 0.6 0
0.2 0.7 0
0.3 0.7 0
0.3 0.6 0
0.4 0.6 0
0.3 0.7 0
0.4 0.7 0
0.2 0.7 0
0.3 0.7 0
0.2 0.8 0
0.3 0.8 0
0.3 0.7 0
0.4 0.7 0
0.3 0.8 0
0.4 0.8 0
0.2 0.8 0
0.3 0.8 0
0.2 0.9 0
0.3 0.9 0
0.3 0.8 0
0.4 0.8 0
0.3 0.9 0
0.4 0.9 0
0.2 0.9 0
0.3 0.9 0
0.2 1 0
0.3 1 0
0.3 0.9 0
0.4 0.9 0
0.3 1 0
0.4 1 0
0.4 0 0
0.5 0 0
0.4 0.1 0
0.5 0.1 0
0.5 0 0
0.6 0 0
0.5 0.1 0
0.6 0.1 0
0.4 0.1 0
0.5 0.1 0
0.4 0.2 0
0.5 0.2 0
0.5 0.1 0
0.6 0.1 0
0.5 0.2 0
0.6 0.2 0
0.4 0.2 0
0.5 0.2 0
0.4 0.3 0
0.5 0.3 0
0.5 0.2 0
0.6 0.2 0
0.5 0.3 0
0.6 0.3 0
0.4 0.3 0
0.5 0.3 0
0.4 0.4 0
0.5 0.4 0
0.5 0.3 0
0.6 0.3 0
0.5 0.4 0
0.6 0.4 0
0.4 0.4 0
0.5 0.4 0
0.4 0.5 0
0.5 0.5 0
0.5 0.4 0
0.6 0.4 0
0.5 0.5 0
0.6 0.5 0
0.4 0.5 0
0.5 0.5 0
0.4 0.6 0
0.5 0.6 0
0.5 0.5 0
0.6 0.5 0
0.5 0.6 0
0.6 0.6 0
0.4 0.6 0
0.5 0.6 0
0.4 0.7 0
0.5 0.7 0
0.5 0.6 0
0.6 0.6 0
0.5 0.7 0
0.6 0.7 0
0.4 0.7 0
0.5 0.7 0
0.4 0.8 0
0.5 0.8 0
0.5 0.7 0
0.6 0.7 0
0.5 0.8 0
0.6 0.8 0
0.4 0.8 0
0.5 0.8 0
0.4 0.9 0
0.5 0.9 0
0.5 0.8 0
0.6 0.8 0
0.5 0.9 0
0.6 0.9 0
0.4 0.9 0
0.5 0.9 0
0.4 1 0
0.5 1 0
0.5 0.9 0
0.6 0.9 0
0.5 1 0
0.6 1 0
0.6 0 0
0.7 0 0
0.6 0.1 0
0.7 0.1 0
0.7 0 0
0.8 0 0
0.7 0.1 0
0.8 0.1 0
0.6 0.1 0
0.7 0.1 0
0.6 0.2 0
0.7 0.2 0
0.7 0.1 0
0.8 0.1 0
0.7 0.2 0
0.8 0.2 0
0.6 0.2 0
0.7 0.2 0
0.6 0.3 0
0.7 0.3 0
0.7 0.2 0
0.8 0.2 0
0.7 0.3 0
0.8 0.3 0
0.6 0.3 0
0.7 0.3 0
0.6 0.4 0
0.7 0.4 0
0.7 0.3 0
0.8 0.3 0
0.7 0.4 0
0.8 0.4 0
0.6 0.4 0
0.7 0.4 0
0.6 0.5 0
0.7 0.5 0
0.7 0.4 0
0.8 0.4 0
0.7 0.5 0
0.8 0.5 0
0.6 0.5 0
0.7 0.5 0
0.6 0.6 0
0.7 0.6 0
0.7 0.5 0
0.8 0.5 0
0.7 0.6 0
0.8 0.6 0
0.6 0.6 0
0.7 0.6 0
0.6 0.7 0
0.7 0.7 0
0.7 0.6 0
0.8 0.6 0
0.7 0.7 0
0.8 0.7 0
0.6 0.7 0
0.7 0.7 0
0.6 0.8 0
0.7 0.8 0
0.7 0.7 0
0.8 0.7 0
0.7 0.8 0
0.8 0.8 0
0.6 0.8 0
0.7 0.8 0
0.6 0.9 0
0.7 0.9 0
0.7 0.8 0
0.8 0.8 0
0.7 0.9 0
0.8 0.9 0
0.6 0.9 0
0.7 0.9 0
0.6 1 0
0.7 1 0
0.7 0.9 0
0.8 0.9 0
0.7 1 0
0.8 1 0
0.8 0 0
0.9 0 0
0.8 0.1 0
0.9 0.1 0
0.9 0 0
1 0 0
0.9 0.1 0
1 0.1 0
0.8 0.1 0
0.9 0.1 0
0.8 0.2 0
0.9 0.2 0
0.9 0.1 0
1 0.1 0
0.9 0.2 0
1 0.2 0
0.8 0.2 0
0.9 0.2 0
0.8 0.3 0
0.9 0.3 0
0.9 0.2 0
1 0.2 0
0.9 0.3 0
1 0.3 0
0.8 0.3 0
0.9 0.3 0
0.8 0.4 0
0.9 0.4 0
0.9 0.3 0
1 0.3 0
0.9 0.4 0
1 0.4 0
0.8 0.4 0
0.9 0.4 0
0.8 0.5 0
0.9 0.5 0
0.9 0.4 0
1 0.4 0
0.9 0.5 0
1 0.5 0
0.8 0.5 0
0.9 0.5 0
0.8 0.6 0
0.9 0.6 0
0.9 0.5 0
1 0.5 0
0.9 0.6 0
1 0.6 0
0.8 0.6 0
0.9 0.6 0
0.8 0.7 0
0.9 0.7 0
0.9 0.6 0
1 0.6 0
0.9 0.7 0
1 0.7 0
0.8 0.7 0
0.9 0.7 0
0.8 0.8 0
0.9 0.8 0
0.9 0.7 0
1 0.7 0
0.9 0.8 0
1 0.8 0
0.8 0.8 0
0.9 0.8 0
0.8 0.9 0
0.9 0.9 0
0.9 0.8 0
1 0.8 0
0.9 0.9 0
1 0.9 0
0.8 0.9 0
0.9 0.9 0
0.8 1 0
0.9 1 0
0.9 0.9 0
1 0.9 0
0.9 1 0
1 1 0

CELLS 100 500
4	0	1	3	2
4	4	5	7	6
4	8	9	11	10
4	12	13	15	14
4	16	17	19	18
4	20	21	23	22
4	24	25	27	26
4	28	29	31	30
4	32	33	35	34
4	36	37	39	38
4	40	41	43	42
4	44	45	47	46
4	48	49	51	50
4	52	53	55	54
4	56	57	59	58
4	60	61	63	62
4	64	65	67	66
4	68	69	71	70
4	72	73	75	74
4	76	77	79	78
4	80	81	83	82
4	84	85	87	86
4	88	89	91	90
4	92	93	95	94
4	96	97	99	98
4	100	101	103	102
4	104	105	107	106
4	108	109	111	110
4	112	113	115	114
4	116	117	119	118
4	120	121	123	122
4	124	125	127	126
4	128	129	131	130
4	132	133	135	134
4	136	137	139	138
4	140	141	143	142
4	144	145	147	146
4	148	149	151	150
4	152	153	155	154
4	156	157	159	158
4	160	161	163	162
4	164	165	167	166
4	168	169	171	170
4	172	173	175	174
4	176	177	179	178
4	180	181	183	182
4	184	185	187	186
4	188	189	191	190
4	192	193	195	194
4	196	197	199	198
4	200	201	203	202
4	204	205	207	206
4	208	209	211	210
4	212	213	215	214
4	216	217	219	218
4	220	221	223	222
4	224	225	227	226
4	228	229	231	230
4	232	233	235	234
4	236	237	239	238
4	240	241	243	242
4	244	245	247	246
4	248	249	251	250
4	252	253	255	254
4	256	257	259	258
4	260	261	263	262
4	264	265	267	266
4	268	269	271	270
4	272	273	275	274
4	276	277	279	278
4	280	281	283	282
4	284	285	287	286
4	288	289	291	290
4	292	293	295	294
4	296	297	299	298
4	300	301	303	302
4	304	305	307	306
4	308	309	311	310
4	312	313	315	314
4	316	317	319	318
4	320	321	323	322
4	324	325	327	326
4	328	329	331	330
4	332	333	335	334
4	336	337	339	338
4	340	341	343	342
4	344	345	347	346
4	348	349	351	350
4	352	353	355	354
4	356	357	359	358
4	360	361	363	362
4	364	365	367	366
4	368	369	371	370
4	372	373	375	374
4	376	377	379	378
4	380	381	383	382
4	384	385	387	386
4	388	389	391	390
4	392	393	395	394
4	396	397	399	398

CELL_TYPES 100
 9 9 9 9 9 9 9 9 9 9 9 9 9 9 9 9 9 9 9 9 9 9 9 9 9 9 9 9 9 9 9 9 9 9 9 9 9 9 9 9 9 9 9 9 9 9 9 9 9 9 9 9 9 9 9 9 9 9 9 9 9 9 9 9 9 9 9 9 9 9 9 9 9 9 9 9 9 9 9 9 9 9 9 9 9 9 9 9 9 9 9 9 9 9 9 9 9 9 9 9
POINT_DATA 400
VECTORS velocity double
0 0 0
0.309017 0 0
0 -0.309017 0
0.29388 -0.293899 0
0.309017 0 0
0.587785 0 0
0.29388 -0.293899 0
0.55911 -0.250044 0
0 -0.309017 0
0.29388 -0.293899 0
0 -0.587785 0
0.250018 -0.559145 0
0.29388 -0.293899 0
0.55911 -0.250044 0
0.250018 -0.559145 0
0.475442 -0.475502 0
0 -0.587785 0
0.250018 -0.559145 0
0 -0.809017 0
0.181612 -0.769399 0
0.250018 -0.559145 0
0.475442 -0.475502 0
0.181612 -0.769399 0
0.345463 -0.654602 0
0 -0.809017 0
0.181612 -0.769399 0
0 -0.951057 0
0.0954823 -0.904416 0
0.181612 -0.769399 0
0.345463 -0.654602 0
0.0954823 -0.904416 0
0.181599 -0.769315 0
0 -0.951057 0
0.0954823 -0.904416 0
0 -1 0
-4.25082e-06 -0.950952 0
0.0954823 -0.904416 0
0.181599 -0.769315 0
-4.25082e-06 -0.950952 0
-1.69304e-05 -0.808867 0
0 -1 0
-4.25082e-06 -0.950952 0
0 -0.951057 0
-0.0954912 -0.904392 0
-4.25082e-06 -0.950952 0
-1.69304e-05 -0.808867 0
-0.0954912 -0.904392 0
-0.181634 -0.769276 0
0 -0.951057 0
-0.0954912 -0.904392 0
0 -0.809017 0
-0.181626 -0.769361 0
-0.0954912 -0.904392 0
-0.181634 -0.769276 0
-0.181626 -0.769361 0
-0.345506 -0.654531 0
0 -0.809017 0
-0.181626 -0.769361 0
0 -0.587785 0
-0.250058 -0.559129 0
-0.181626 -0.769361 0
-0.345506 -0.654531 0
-0.250058 -0.559129 0
-0.475497 -0.475426 0
0 -0.587785 0
-0.250058 -0.559129 0
0 -0.309017 0
-0.293885 -0.293854 0
-0.250058 -0.559129 0
-0.475497 -0.475426 0
-0.293885 -0.293854 0
-0.55919 -0.250032 0
0 -0.309017 0
-0.293885 -0.293854 0
0 -1.22465e-16 0
-0.309017 -1.16471e-16 0
-0.293885 -0.293854 0
-0.55919 -0.250032 0
-0.309017 -1.16471e-16 0
-0.587785 -9.9076e-17 0
0.587785 0 0
0.809017 0 0
0.55911 -0.250044 0
0.769383 -0.18163 0
0.809017 0 0
0.951057 0 0
0.769383 -0.18163 0
0.904435 -0.0954983 0
0.55911 -0.250044 0
0.769383 -0.18163 0
0.475442 -0.475502 0
0.654533 -0.345507 0
0.769383 -0.18163 0
0.904435 -0.0954983 0
0.654533 -0.345507 0
0.769307 -0.181641 0
0.475442 -0.475502 0
0.654533 -0.345507 0
0.345463 -0.654602 0
0.475515 -0.475606 0
0.654533 -0.345507 0
0.769307 -0.181641 0
0.475515 -0.475606 0
0.55893 -0.25002 0
0.345463 -0.654602 0
0.475515 -0.475606 0
0.181599 -0.769315 0
0.249925 -0.558974 0
0.475515 -0.475606 0
0.55893 -0.25002 0
0.249925 -0.558974 0
0.293912 -0.293989 0
0.181599 -0.769315 0
0.249925 -0.558974 0
-1.69304e-05 -0.808867 0
-4.64957e-05 -0.587606 0
0.249925 -0.558974 0
0.293912 -0.293989 0
-4.64957e-05 -0.587606 0
-4.03072e-05 -0.308821 0
-1.69304e-05 -0.808867 0
-4.64957e-05 -0.587606 0
-0.181634 -0.769276 0
-0.250015 -0.558915 0
-4.64957e-05 -0.587606 0
-4.03072e-05 -0.308821 0
-0.250015 -0.558915 0
-0.29397 -0.293909 0
-0.181634 -0.769276 0
-0.250015 -0.558915 0
-0.345506 -0.654531 0
-0.475611 -0.475521 0
-0.250015 -0.558915 0
-0.29397 -0.293909 0
-0.475611 -0.475521 0
-0.558953 -0.249929 0
-0.345506 -0.654531 0
-0.475611 -0.475521 0
-0.475497 -0.475426 0
-0.654616 -0.345468 0
-0.475611 -0.475521 0
-0.558953 -0.249929 0
-0.654616 -0.345468 0
-0.769295 -0.181605 0
-0.475497 -0.475426 0
-0.654616 -0.345468 0
-0.55919 -0.250032 0
-0.769403 -0.181617 0
-0.654616 -0.345468 0
-0.769295 -0.181605 0
-0.769403 -0.181617 0
-0.904397 -0.0954885 0
-0.55919 -0.250032 0
-0.769403 -0.181617 0
-0.587785 -9.9076e-17 0
-0.809017 -7.19829e-17 0
-0.769403 -0.181617 0
-0.904397 -0.0954885 0
-0.809017 -7.19829e-17 0
-0.951057 -3.78437e-17 0
0.951057 0 0
1 0 0
0.904435 -0.0954983 0
0.950995 -1.30565e-05 0
1 0 0
0.951057 0 0
0.950995 -1.30565e-05 0
0.904444 0.0954716 0
0.904435 -0.0954983 0
0.950995 -1.30565e-05 0
0.769307 -0.181641 0
0.808903 -2.49467e-05 0
0.950995 -1.30565e-05 0
0.904444 0.0954716 0
0.808903 -2.49467e-05 0
0.769327 0.18159 0
0.769307 -0.181641 0
0.808903 -2.49467e-05 0
0.55893 -0.25002 0
0.587629 -5.50907e-05 0
0.808903 -2.49467e-05 0
0.769327 0.18159 0
0.587629 -5.50907e-05 0
0.558967 0.249912 0
0.55893 -0.25002 0
0.587629 -5.50907e-05 0
0.293912 -0.293989 0
0.308836 -6.4157e-05 0
0.587629 -5.50907e-05 0
0.558967 0.249912 0
0.308836 -6.4157e-05 0
0.293976 0.293875 0
0.293912 -0.293989 0
0.308836 -6.4157e-05 0
-4.03072e-05 -0.308821 0
2.67624e-05 -1.69801e-05 0
0.308836 -6.4157e-05 0
0.293976 0.293875 0
2.67624e-05 -1.69801e-05 0
6.07024e-05 0.3088 0
-4.03072e-05 -0.308821 0
2.67624e-05 -1.69801e-05 0
-0.29397 -0.293909 0
-0.308785 3.68537e-05 0
2.67624e-05 -1.69801e-05 0
6.07024e-05 0.3088 0
-0.308785 3.68537e-05 0
-0.293872 0.293957 0
-0.29397 -0.293909 0
-0.308785 3.68537e-05 0
-0.558953 -0.249929 0
-0.587574 3.8219e-05 0
-0.308785 3.68537e-05 0
-0.293872 0.293957 0
-0.587574 3.8219e-05 0
-0.558878 0.250002 0
-0.558953 -0.249929 0
-0.587574 3.8219e-05 0
-0.769295 -0.181605 0
-0.808842 7.48914e-06 0
-0.587574 3.8219e-05 0
-0.558878 0.250002 0
-0.808842 7.48914e-06 0
-0.769249 0.181622 0
-0.769295 -0.181605 0
-0.808842 7.48914e-06 0
-0.904397 -0.0954885 0
-0.950932 -4.34724e-06 0
-0.808842 7.48914e-06 0
-0.769249 0.181622 0
-0.950932 -4.34724e-06 0
-0.904374 0.0954796 0
-0.904397 -0.0954885 0
-0.950932 -4.34724e-06 0
-0.951057 -3.78437e-17 0
-1 -3.46914e-32 0
-0.950932 -4.34724e-06 0
-0.904374 0.0954796 0
-1 -3.46914e-32 0
-0.951057 3.78437e-17 0
0.951057 0 0
0.809017 0 0
0.904444 0.0954716 0
0.769373 0.181597 0
0.809017 0 0
0.587785 0 0
0.769373 0.181597 0
0.55905 0.249975 0
0.904444 0.0954716 0
0.769373 0.181597 0
0.769327 0.18159 0
0.654554 0.345442 0
0.769373 0.181597 0
0.55905 0.249975 0
0.654554 0.345442 0
0.475497 0.475452 0
0.769327 0.18159 0
0.654554 0.345442 0
0.558967 0.249912 0
0.475585 0.475495 0
0.654554 0.345442 0
0.475497 0.475452 0
0.475585 0.475495 0
0.345482 0.654483 0
0.558967 0.249912 0
0.475585 0.475495 0
0.293976 0.293875 0
0.250007 0.558892 0
0.475585 0.475495 0
0.345482 0.654483 0
0.250007 0.558892 0
0.181628 0.769279 0
0.293976 0.293875 0
0.250007 0.558892 0
6.07024e-05 0.3088 0
4.68149e-05 0.587597 0
0.250007 0.558892 0
0.181628 0.769279 0
4.68149e-05 0.587597 0
1.55068e-05 0.808878 0
6.07024e-05 0.3088 0
4.68149e-05 0.587597 0
-0.293872 0.293957 0
-0.249915 0.558945 0
4.68149e-05 0.587597 0
1.55068e-05 0.808878 0
-0.249915 0.558945 0
-0.181596 0.769307 0
-0.293872 0.293957 0
-0.249915 0.558945 0
-0.558878 0.250002 0
-0.4755 0.475589 0
-0.249915 0.558945 0
-0.181596 0.769307 0
-0.4755 0.475589 0
-0.345447 0.654567 0
-0.558878 0.250002 0
-0.4755 0.475589 0
-0.769249 0.181622 0
-0.654481 0.345481 0
-0.4755 0.475589 0
-0.345447 0.654567 0
-0.654481 0.345481 0
-0.475436 0.475493 0
-0.769249 0.181622 0
-0.654481 0.345481 0
-0.904374 0.0954796 0
-0.769319 0.181607 0
-0.654481 0.345481 0
-0.475436 0.475493 0
-0.769319 0.181607 0
-0.559044 0.250005 0
-0.904374 0.0954796 0
-0.769319 0.181607 0
-0.951057 3.78437e-17 0
-0.809017 7.19829e-17 0
-0.769319 0.181607 0
-0.559044 0.250005 0
-0.809017 7.19829e-17 0
-0.587785 9.9076e-17 0
0.587785 0 0
0.309017 0 0
0.55905 0.249975 0
0.293894 0.293887 0
0.309017 0 0
1.22465e-16 0 0
0.293894 0.293887 0
1.16471e-16 0.309017 0
0.55905 0.249975 0
0.293894 0.293887 0
0.475497 0.475452 0
0.24999 0.559025 0
0.293894 0.293887 0
1.16471e-16 0.309017 0
0.24999 0.559025 0
9.9076e-17 0.587785 0
0.475497 0.475452 0
0.24999 0.559025 0
0.345482 0.654483 0
0.181611 0.769342 0
0.24999 0.559025 0
9.9076e-17 0.587785 0
0.181611 0.769342 0
7.19829e-17 0.809017 0
0.345482 0.654483 0
0.181611 0.769342 0
0.181628 0.769279 0
0.0954867 0.904417 0
0.181611 0.769342 0
7.19829e-17 0.809017 0
0.0954867 0.904417 0
3.78437e-17 0.951057 0
0.181628 0.769279 0
0.0954867 0.904417 0
1.55068e-05 0.808878 0
4.45963e-06 0.950975 0
0.0954867 0.904417 0
3.78437e-17 0.951057 0
4.45963e-06 0.950975 0
7.4988e-33 1 0
1.55068e-05 0.808878 0
4.45963e-06 0.950975 0
-0.181596 0.769307 0
-0.0954777 0.904425 0
4.45963e-06 0.950975 0
7.4988e-33 1 0
-0.0954777 0.904425 0
-3.78437e-17 0.951057 0
-0.181596 0.769307 0
-0.0954777 0.904425 0
-0.345447 0.654567 0
-0.181602 0.769377 0
-0.0954777 0.904425 0
-3.78437e-17 0.951057 0
-0.181602 0.769377 0
-7.19829e-17 0.809017 0
-0.345447 0.654567 0
-0.181602 0.769377 0
-0.475436 0.475493 0
-0.249988 0.559096 0
-0.181602 0.769377 0
-7.19829e-17 0.809017 0
-0.249988 0.559096 0
-9.9076e-17 0.587785 0
-0.475436 0.475493 0
-0.249988 0.559096 0
-0.559044 0.250005 0
-0.293861 0.29388 0
-0.249988 0.559096 0
-9.9076e-17 0.587785 0
-0.293861 0.29388 0
-1.16471e-16 0.309017 0
-0.559044 0.250005 0
-0.293861 0.29388 0
-0.587785 9.9076e-17 0
-0.309017 1.16471e-16 0
-0.293861 0.29388 0
-1.16471e-16 0.309017 0
-0.309017 1.16471e-16 0
-1.22465e-16 1.22465e-16 0
VECTORS velocity_error double
0 0 0
0 0 0
0 0 0
1.28288e-05 6.85219e-06 0
0 0 0
0 0 0
1.28288e-05 6.85219e-06 0
-9.29406e-05 4.37977e-05 0
0 0 0
1.28288e-05 6.85219e-06 0
0 0 0
-1.82695e-05 0.000127615 0
1.28288e-05 6.85219e-06 0
-9.29406e-05 4.37977e-05 0
-1.82695e-05 0.000127615 0
8.60896e-05 -2.67167e-05 0
0 0 0
-1.82695e-05 0.000127615 0
0 0 0
2.36375e-05 -2.19456e-05 0
-1.82695e-05 0.000127615 0
8.60896e-05 -2.67167e-05 0
2.36375e-05 -2.19456e-05 0
2.8907e-05 9.34436e-05 0
0 0 0
2.36375e-05 -2.19456e-05 0
0 0 0
9.24022e-06 -9.24119e-05 0
2.36375e-05 -2.19456e-05 0
2.8907e-05 9.34436e-05 0
9.24022e-06 -9.24119e-05 0
3.63196e-05 -0.000106108 0
0 0 0
9.24022e-06 -9.24119e-05 0
0 0 0
4.25082e-06 -0.000104694 0
9.24022e-06 -9.24119e-05 0
3.63196e-05 -0.000106108 0
4.25082e-06 -0.000104694 0
1.69304e-05 -0.000149541 0
0 0 0
4.25082e-06 -0.000104694 0
0 0 0
-2.68081e-07 -0.0001166 0
4.25082e-06 -0.000104694 0
1.69304e-05 -0.000149541 0
-2.68081e-07 -0.0001166 0
-1.21329e-06 -0.000145088 0
0 0 0
-2.68081e-07 -0.0001166 0
0 0 0
-1.0128e-05 -6.02911e-05 0
-2.68081e-07 -0.0001166 0
-1.21329e-06 -0.000145088 0
-1.0128e-05 -6.02911e-05 0
1.47124e-05 2.2225e-05 0
0 0 0
-1.0128e-05 -6.02911e-05 0
0 0 0
5.83884e-05 0.000112485 0
-1.0128e-05 -6.02911e-05 0
1.47124e-05 2.2225e-05 0
5.83884e-05 0.000112485 0
-3.08878e-05 -0.000101784 0
0 0 0
5.83884e-05 0.000112485 0
0 0 0
-7.40892e-06 -3.90866e-05 0
5.83884e-05 0.000112485 0
-3.08878e-05 -0.000101784 0
-7.40892e-06 -3.90866e-05 0
0.00017264 3.20667e-05 0
0 0 0
-7.40892e-06 -3.90866e-05 0
0 0 0
0 0 0
-7.40892e-06 -3.90866e-05 0
0.00017264 3.20667e-05 0
0 0 0
0 0 0
0 0 0
0 0 0
-9.29406e-05 4.37977e-05 0
3.74374e-05 -5.82412e-06 0
0 0 0
0 0 0
3.74374e-05 -5.82412e-06 0
7.32873e-05 6.76108e-06 0
-9.29406e-05 4.37977e-05 0
3.74374e-05 -5.82412e-06 0
8.60896e-05 -2.67167e-05 0
-2.44239e-05 1.56796e-05 0
3.74374e-05 -5.82412e-06 0
7.32873e-05 6.76108e-06 0
-2.44239e-05 1.56796e-05 0
0.00011435 4.87734e-06 0
8.60896e-05 -2.67167e-05 0
-2.44239e-05 1.56796e-05 0
2.8907e-05 9.34436e-05 0
1.29011e-05 7.74728e-05 0
-2.44239e-05 1.56796e-05 0
0.00011435 4.87734e-06 0
1.29011e-05 7.74728e-05 0
8.73875e-05 1.98793e-05 0
2.8907e-05 9.34436e-05 0
1.29011e-05 7.74728e-05 0
3.63196e-05 -0.000106108 0
7.4538e-05 -4.26675e-05 0
1.29011e-05 7.74728e-05 0
8.73875e-05 1.98793e-05 0
7.4538e-05 -4.26675e-05 0
-1.90046e-05 9.64865e-05 0
3.63196e-05 -0.000106108 0
7.4538e-05 -4.26675e-05 0
1.69304e-05 -0.000149541 0
4.64957e-05 -0.000179095 0
7.4538e-05 -4.26675e-05 0
-1.90046e-05 9.64865e-05 0
4.64957e-05 -0.000179095 0
4.03072e-05 -0.000195778 0
1.69304e-05 -0.000149541 0
4.64957e-05 -0.000179095 0
-1.21329e-06 -0.000145088 0
1.45688e-05 -0.000101533 0
4.64957e-05 -0.000179095 0
4.03072e-05 -0.000195778 0
1.45688e-05 -0.000101533 0
7.69429e-05 1.6855e-05 0
-1.21329e-06 -0.000145088 0
1.45688e-05 -0.000101533 0
1.47124e-05 2.2225e-05 0
8.23085e-05 -7.33571e-06 0
1.45688e-05 -0.000101533 0
7.69429e-05 1.6855e-05 0
8.23085e-05 -7.33571e-06 0
-6.41848e-05 -7.10833e-05 0
1.47124e-05 2.2225e-05 0
8.23085e-05 -7.33571e-06 0
-3.08878e-05 -0.000101784 0
0.000107072 -2.37384e-05 0
8.23085e-05 -7.33571e-06 0
-6.41848e-05 -7.10833e-05 0
0.000107072 -2.37384e-05 0
-0.000125931 -3.0492e-05 0
-3.08878e-05 -0.000101784 0
0.000107072 -2.37384e-05 0
0.00017264 3.20667e-05 0
-1.79555e-05 -1.83851e-05 0
0.000107072 -2.37384e-05 0
-0.000125931 -3.0492e-05 0
-1.79555e-05 -1.83851e-05 0
-0.000111284 -3.05399e-06 0
0.00017264 3.20667e-05 0
-1.79555e-05 -1.83851e-05 0
0 0 0
0 0 0
-1.79555e-05 -1.83851e-05 0
-0.000111284 -3.05399e-06 0
0 0 0
0 0 0
0 0 0
0 0 0
7.32873e-05 6.76108e-06 0
6.14637e-05 1.30565e-05 0
0 0 0
0 0 0
6.14637e-05 1.30565e-05 0
6.43839e-05 1.99402e-05 0
7.32873e-05 6.76108e-06 0
6.14637e-05 1.30565e-05 0
0.00011435 4.87734e-06 0
0.000113579 2.49467e-05 0
6.14637e-05 1.30565e-05 0
6.43839e-05 1.99402e-05 0
0.000113579 2.49467e-05 0
9.36607e-05 4.59524e-05 0
0.00011435 4.87734e-06 0
0.000113579 2.49467e-05 0
8.73875e-05 1.98793e-05 0
0.000156312 5.50907e-05 0
0.000113579 2.49467e-05 0
9.36607e-05 4.59524e-05 0
0.000156312 5.50907e-05 0
5.03728e-05 8.79521e-05 0
8.73875e-05 1.98793e-05 0
0.000156312 5.50907e-05 0
-1.90046e-05 9.64865e-05 0
0.000180933 6.4157e-05 0
0.000156312 5.50907e-05 0
5.03728e-05 8.79521e-05 0
0.000180933 6.4157e-05 0
-8.36352e-05 1.81345e-05 0
-1.90046e-05 9.64865e-05 0
0.000180933 6.4157e-05 0
4.03072e-05 -0.000195778 0
-2.67624e-05 1.69801e-05 0
0.000180933 6.4157e-05 0
-8.36352e-05 1.81345e-05 0
-2.67624e-05 1.69801e-05 0
-6.07024e-05 0.000217076 0
4.03072e-05 -0.000195778 0
-2.67624e-05 1.69801e-05 0
7.69429e-05 1.6855e-05 0
-0.000231922 -3.68537e-05 0
-2.67624e-05 1.69801e-05 0
-6.07024e-05 0.000217076 0
-0.000231922 -3.68537e-05 0
-2.02847e-05 -6.40908e-05 0
7.69429e-05 1.6855e-05 0
-0.000231922 -3.68537e-05 0
-6.41848e-05 -7.10833e-05 0
-0.000210848 -3.8219e-05 0
-0.000231922 -3.68537e-05 0
-2.02847e-05 -6.40908e-05 0
-0.000210848 -3.8219e-05 0
-0.00013945 -1.73093e-06 0
-6.41848e-05 -7.10833e-05 0
-0.000210848 -3.8219e-05 0
-0.000125931 -3.0492e-05 0
-0.000175022 -7.48914e-06 0
-0.000210848 -3.8219e-05 0
-0.00013945 -1.73093e-06 0
-0.000175022 -7.48914e-06 0
-0.000172146 1.33578e-05 0
-0.000125931 -3.0492e-05 0
-0.000175022 -7.48914e-06 0
-0.000111284 -3.05399e-06 0
-0.000124928 4.34724e-06 0
-0.000175022 -7.48914e-06 0
-0.000172146 1.33578e-05 0
-0.000124928 4.34724e-06 0
-0.000134735 1.18786e-05 0
-0.000111284 -3.05399e-06 0
-0.000124928 4.34724e-06 0
0 0 0
0 0 0
-0.000124928 4.34724e-06 0
-0.000134735 1.18786e-05 0
0 0 0
0 0 0
0 0 0
0 0 0
6.43839e-05 1.99402e-05 0
4.78321e-05 3.89432e-05 0
0 0 0
0 0 0
4.78321e-05 3.89432e-05 0
-3.34696e-05 2.52948e-05 0
6.43839e-05 1.99402e-05 0
4.78321e-05 3.89432e-05 0
9.36607e-05 4.59524e-05 0
-4.5253e-05 4.92721e-05 0
4.78321e-05 3.89432e-05 0
-3.34696e-05 2.52948e-05 0
-4.5253e-05 4.92721e-05 0
3.12277e-05 7.66004e-05 0
9.36607e-05 4.59524e-05 0
-4.5253e-05 4.92721e-05 0
5.03728e-05 8.79521e-05 0
-5.63275e-05 3.35165e-05 0
-4.5253e-05 4.92721e-05 0
3.12277e-05 7.66004e-05 0
-5.63275e-05 3.35165e-05 0
9.89927e-06 2.54992e-05 0
5.03728e-05 8.79521e-05 0
-5.63275e-05 3.35165e-05 0
-8.36352e-05 1.81345e-05 0
-7.04291e-06 0.000125302 0
-5.63275e-05 3.35165e-05 0
9.89927e-06 2.54992e-05 0
-7.04291e-06 0.000125302 0
7.26548e-06 0.000141406 0
-8.36352e-05 1.81345e-05 0
-7.04291e-06 0.000125302 0
-6.07024e-05 0.000217076 0
-4.68149e-05 0.000188064 0
-7.04291e-06 0.000125302 0
7.26548e-06 0.000141406 0
-4.68149e-05 0.000188064 0
-1.55068e-05 0.000139059 0
-6.07024e-05 0.000217076 0
-4.68149e-05 0.000188064 0
-2.02847e-05 -6.40908e-05 0
-8.44986e-05 7.18922e-05 0
-4.68149e-05 0.000188064 0
-1.55068e-05 0.000139059 0
-8.44986e-05 7.18922e-05 0
-4.01266e-05 0.000113486 0
-2.02847e-05 -6.40908e-05 0
-8.44986e-05 7.18922e-05 0
-0.00013945 -1.73093e-06 0
-2.79501e-05 -6.11633e-05 0
-8.44986e-05 7.18922e-05 0
-4.01266e-05 0.000113486 0
-2.79501e-05 -6.11633e-05 0
-4.41059e-05 -5.88809e-05 0
-0.00013945 -1.73093e-06 0
-2.79501e-05 -6.11633e-05 0
-0.000172146 1.33578e-05 0
-2.7697e-05 1.08686e-05 0
-2.79501e-05 -6.11633e-05 0
-4.41059e-05 -5.88809e-05 0
-2.7697e-05 1.08686e-05 0
-9.22952e-05 3.54e-05 0
-0.000172146 1.33578e-05 0
-2.7697e-05 1.08686e-05 0
-0.000134735 1.18786e-05 0
-0.000102007 2.87791e-05 0
-2.7697e-05 1.08686e-05 0
-9.22952e-05 3.54e-05 0
-0.000102007 2.87791e-05 0
2.72626e-05 -4.71947e-06 0
-0.000134735 1.18786e-05 0
-0.000102007 2.87791e-05 0
0 0 0
0 0 0
-0.000102007 2.87791e-05 0
2.72626e-05 -4.71947e-06 0
0 0 0
0 0 0
0 0 0
0 0 0
-3.34696e-05 2.52948e-05 0
-1.57059e-06 5.8455e-06 0
0 0 0
0 0 0
-1.57059e-06 5.8455e-06 0
0 0 0
-3.34696e-05 2.52948e-05 0
-1.57059e-06 5.8455e-06 0
3.12277e-05 7.66004e-05 0
9.86846e-06 -7.70721e-06 0
-1.57059e-06 5.8455e-06 0
0 0 0
9.86846e-06 -7.70721e-06 0
0 0 0
3.12277e-05 7.66004e-05 0
9.86846e-06 -7.70721e-06 0
9.89927e-06 2.54992e-05 0
2.44722e-05 7.91546e-05 0
9.86846e-06 -7.70721e-06 0
0 0 0
2.44722e-05 7.91546e-05 0
0 0 0
9.89927e-06 2.54992e-05 0
2.44722e-05 7.91546e-05 0
7.26548e-06 0.000141406 0
4.84809e-06 9.14243e-05 0
2.44722e-05 7.91546e-05 0
0 0 0
4.84809e-06 9.14243e-05 0
0 0 0
7.26548e-06 0.000141406 0
4.84809e-06 9.14243e-05 0
-1.55068e-05 0.000139059 0
-4.45963e-06 8.16986e-05 0
4.84809e-06 9.14243e-05 0
0 0 0
-4.45963e-06 8.16986e-05 0
0 0 0
-1.55068e-05 0.000139059 0
-4.45963e-06 8.16986e-05 0
-4.01266e-05 0.000113486 0
-1.37556e-05 8.32573e-05 0
-4.45963e-06 8.16986e-05 0
0 0 0
-1.37556e-05 8.32573e-05 0
0 0 0
-4.01266e-05 0.000113486 0
-1.37556e-05 8.32573e-05 0
-4.41059e-05 -5.88809e-05 0
-3.36943e-05 4.38441e-05 0
-1.37556e-05 8.32573e-05 0
0 0 0
-3.36943e-05 4.38441e-05 0
0 0 0
-4.41059e-05 -5.88809e-05 0
-3.36943e-05 4.38441e-05 0
-9.22952e-05 3.54e-05 0
-1.15019e-05 -7.85032e-05 0
-3.36943e-05 4.38441e-05 0
0 0 0
-1.15019e-05 -7.85032e-05 0
0 0 0
-9.22952e-05 3.54e-05 0
-1.15019e-05 -7.85032e-05 0
2.72626e-05 -4.71947e-06 0
-3.20925e-05 1.26792e-05 0
-1.15019e-05 -7.85032e-05 0
0 0 0
-3.20925e-05 1.26792e-05 0
0 0 0
2.72626e-05 -4.71947e-06 0
-3.20925e-05 1.26792e-05 0
0 0 0
0 0 0
-3.20925e-05 1.26792e-05 0
0 0 0
0 0 0
0 0 0
SCALARS pressure double 1
LOOKUP_TABLE default
-0.000411202 -0.000386654 0.30895 0.293848 -0.000386654 -0.000311817 0.293848 0.249948 0.30895 0.293848 0.587832 0.559049 0.293848 0.249948 0.559049 0.47558 0.587832 0.559049 0.809118 0.769507 0.559049 0.47558 0.769507 0.654586 0.809118 0.769507 0.951183 0.904634 0.769507 0.654586 0.904634 0.769539 0.951183 0.904634 1.00014 0.951196 0.904634 0.769539 0.951196 0.80915 1.00014 0.951196 0.951193 0.90464 0.951196 0.80915 0.90464 0.769543 0.951193 0.90464 0.809133 0.769513 0.90464 0.769543 0.769513 0.654591 0.809133 0.769513 0.587845 0.559054 0.769513 0.654591 0.559054 0.475586 0.587845 0.559054 0.308945 0.293853 0.559054 0.475586 0.293853 0.249952 0.308945 0.293853 -0.000382738 -0.000393464 0.293853 0.249952 -0.000393464 -0.000304394 -0.000311817 -0.00022159 0.249948 0.181602 -0.00022159 -0.000121177 0.181602 0.0954781 0.249948 0.181602 0.47558 0.345519 0.181602 0.0954781 0.345519 0.181662 0.47558 0.345519 0.654586 0.47562 0.345519 0.181662 0.47562 0.250053 0.654586 0.47562 0.769539 0.559117 0.47562 0.250053 0.559117 0.293973 0.769539 0.559117 0.80915 0.587909 0.559117 0.293973 0.587909 0.309119 0.80915 0.587909 0.769543 0.559121 0.587909 0.309119 0.559121 0.293976 0.769543 0.559121 0.654591 0.475627 0.559121 0.293976 0.475627 0.250057 0.654591 0.475627 0.475586 0.345524 0.475627 0.250057 0.345524 0.181668 0.475586 0.345524 0.249952 0.181606 0.345524 0.181668 0.181606 0.0954839 0.249952 0.181606 -0.000304394 -0.000212318 0.181606 0.0954839 -0.000212318 -0.000117444 -0.000121177 -1.20197e-05 0.0954781 -6.75733e-06 -1.20197e-05 9.07287e-05 -6.75733e-06 -0.0954986 0.0954781 -6.75733e-06 0.181662 9.16016e-06 -6.75733e-06 -0.0954986 9.16016e-06 -0.181657 0.181662 9.16016e-06 0.250053 3.31183e-05 9.16016e-06 -0.181657 3.31183e-05 -0.250021 0.250053 3.31183e-05 0.293973 5.37789e-05 3.31183e-05 -0.250021 5.37789e-05 -0.2939 0.293973 5.37789e-05 0.309119 1.42786e-05 5.37789e-05 -0.2939 1.42786e-05 -0.309007 0.309119 1.42786e-05 0.293976 5.73102e-05 1.42786e-05 -0.309007 5.73102e-05 -0.293897 0.293976 5.73102e-05 0.250057 3.90565e-05 5.73102e-05 -0.293897 3.90565e-05 -0.250014 0.250057 3.90565e-05 0.181668 1.57292e-05 3.90565e-05 -0.250014 1.57292e-05 -0.18165 0.181668 1.57292e-05 0.0954839 -6.67104e-07 1.57292e-05 -0.18165 -6.67104e-07 -0.0954921 0.0954839 -6.67104e-07 -0.000117444 -8.67107e-06 -6.67104e-07 -0.0954921 -8.67107e-06 9.59478e-05 9.07287e-05 0.000181957 -0.0954986 -0.181653 0.000181957 0.000255527 -0.181653 -0.250027 -0.0954986 -0.181653 -0.181657 -0.345555 -0.181653 -0.250027 -0.345555 -0.475601 -0.181657 -0.345555 -0.250021 -0.475579 -0.345555 -0.475601 -0.475579 -0.654621 -0.250021 -0.475579 -0.2939 -0.559082 -0.475579 -0.654621 -0.559082 -0.769531 -0.2939 -0.559082 -0.309007 -0.587837 -0.559082 -0.769531 -0.587837 -0.809126 -0.309007 -0.587837 -0.293897 -0.55908 -0.587837 -0.809126 -0.55908 -0.769528 -0.293897 -0.55908 -0.250014 -0.475572 -0.55908 -0.769528 -0.475572 -0.654617 -0.250014 -0.475572 -0.18165 -0.345549 -0.475572 -0.654617 -0.345549 -0.475595 -0.18165 -0.345549 -0.0954921 -0.181648 -0.345549 -0.475595 -0.181648 -0.250024 -0.0954921 -0.181648 9.59478e-05 0.000189492 -0.181648 -0.250024 0.000189492 0.000261009 0.000255527 0.000332584 -0.250027 -0.293902 0.000332584 0.000463798 -0.293902 -0.309007 -0.250027 -0.293902 -0.475601 -0.55913 -0.293902 -0.309007 -0.55913 -0.587896 -0.475601 -0.55913 -0.654621 -0.76956 -0.55913 -0.587896 -0.76956 -0.809165 -0.654621 -0.76956 -0.769531 -0.904654 -0.76956 -0.809165 -0.904654 -0.951218 -0.769531 -0.904654 -0.809126 -0.951203 -0.904654 -0.951218 -0.951203 -1.00016 -0.809126 -0.951203 -0.769528 -0.904649 -0.951203 -1.00016 -0.904649 -0.95121 -0.769528 -0.904649 -0.654617 -0.769554 -0.904649 -0.95121 -0.769554 -0.809148 -0.654617 -0.769554 -0.475595 -0.559125 -0.769554 -0.809148 -0.559125 -0.587881 -0.475595 -0.559125 -0.250024 -0.293898 -0.559125 -0.587881 -0.293898 -0.309011 -0.250024 -0.293898 0.000261009 0.000324501 -0.293898 -0.309011 0.000324501 0.000492261 
SCALARS pressure_error double 1
LOOKUP_TABLE default