# vtk DataFile Version 3.0
#This file was generated by the deal.II library on 2026/6/8 at 18:29:39
ASCII
DATASET UNSTRUCTURED_GRID

POINTS 1600 double
0 0 0
0.05 0 0
0 0.05 0
0.05 0.05 0
0.05 0 0
0.1 0 0
0.05 0.05 0
0.1 0.05 0
0 0.05 0
0.05 0.05 0
0 0.1 0
0.05 0.1 0
0.05 0.05 0
0.1 0.05 0
0.05 0.1 0
0.1 0.1 0
0.1 0 0
0.15 0 0
0.1 0.05 0
0.15 0.05 0
0.15 0 0
0.2 0 0
0.15 0.05 0
0.2 0.05 0
0.1 0.05 0
0.15 0.05 0
0.1 0.1 0
0.15 0.1 0
0.15 0.05 0
0.2 0.05 0
0.15 0.1 0
0.2 0.1 0
0 0.1 0
0.05 0.1 0
0 0.15 0
0.05 0.15 0
0.05 0.1 0
0.1 0.1 0
0.05 0.15 0
0.1 0.15 0
0 0.15 0
0.05 0.15 0
0 0.2 0
0.05 0.2 0
0.05 0.15 0
0.1 0.15 0
0.05 0.2 0
0.1 0.2 0
0.1 0.1 0
0.15 0.1 0
0.1 0.15 0
0.15 0.15 0
0.15 0.1 0
0.2 0.1 0
0.15 0.15 0
0.2 0.15 0
0.1 0.15 0
0.15 0.15 0
0.1 0.2 0
0.15 0.2 0
0.15 0.15 0
0.2 0.15 0
0.15 0.2 0
0.2 0.2 0
0 0.2 0
0.05 0.2 0
0 0.25 0
0.05 0.25 0
0.05 0.2 0
0.1 0.2 0
0.05 0.25 0
0.1 0.25 0
0 0.25 0
0.05 0.25 0
0 0.3 0
0.05 0.3 0
0.05 0.25 0
0.1 0.25 0
0.05 0.3 0
0.1 0.3 0
0.1 0.2 0
0.15 0.2 0
0.1 0.25 0
0.15 0.25 0
0.15 0.2 0
0.2 0.2 0
0.15 0.25 0
0.2 0.25 0
0.1 0.25 0
0.15 0.25 0
0.1 0.3 0
0.15 0.3 0
0.15 0.25 0
0.2 0.25 0
0.15 0.3 0
0.2 0.3 0
0 0.3 0
0.05 0.3 0
0 0.35 0
0.05 0.35 0
0.05 0.3 0
0.1 0.3 0
0.05 0.35 0
0.1 0.35 0
0 0.35 0
0.05 0.35 0
0 0.4 0
0.05 0.4 0
0.05 0.35 0
0.1 0.35 0
0.05 0.4 0
0.1 0.4 0
0.1 0.3 0
0.15 0.3 0
0.1 0.35 0
0.15 0.35 0
0.15 0.3 0
0.2 0.3 0
0.15 0.35 0
0.2 0.35 0
0.1 0.35 0
0.15 0.35 0
0.1 0.4 0
0.15 0.4 0
0.15 0.35 0
0.2 0.35 0
0.15 0.4 0
0.2 0.4 0
0 0.4 0
0.05 0.4 0
0 0.45 0
0.05 0.45 0
0.05 0.4 0
0.1 0.4 0
0.05 0.45 0
0.1 0.45 0
0 0.45 0
0.05 0.45 0
0 0.5 0
0.05 0.5 0
0.05 0.45 0
0.1 0.45 0
0.05 0.5 0
0.1 0.5 0
0.1 0.4 0
0.15 0.4 0
0.1 0.45 0
0.15 0.45 0
0.15 0.4 0
0.2 0.4 0
0.15 0.45 0
0.2 0.45 0
0.1 0.45 0
0.15 0.45 0
0.1 0.5 0
0.15 0.5 0
0.15 0.45 0
0.2 0.45 0
0.15 0.5 0
0.2 0.5 0
0 0.5 0
0.05 0.5 0
0 0.55 0
0.05 0.55 0
0.05 0.5 0
0.1 0.5 0
0.05 0.55 0
0.1 0.55 0
0 0.55 0
0.05 0.55 0
0 0.6 0
0.05 0.6 0
0.05 0.55 0
0.1 0.55 0
0.05 0.6 0
0.1 0.6 0
0.1 0.5 0
0.15 0.5 0
0.1 0.55 0
0.15 0.55 0
0.15 0.5 0
0.2 0.5 0
0.15 0.55 0
0.2 0.55 0
0.1 0.55 0
0.15 0.55 0
0.1 0.6 0
0.15 0.6 0
0.15 0.55 0
0.2 0.55 0
0.15 0.6 0
0.2 0.6 0
0 0.6 0
0.05 0.6 0
0 0.65 0
0.05 0.65 0
0.05 0.6 0
0.1 0.6 0
0.05 0.65 0
0.1 0.65 0
0 0.65 0
0.05 0.65 0
0 0.7 0
0.05 0.7 0
0.05 0.65 0
0.1 0.65 0
0.05 0.7 0
0.1 0.7 0
0.1 0.6 0
0.15 0.6 0
0.1 0.65 0
0.15 0.65 0
0.15 0.6 0
0.2 0.6 0
0.15 0.65 0
0.2 0.65 0
0.1 0.65 0
0.15 0.65 0
0.1 0.7 0
0.15 0.7 0
0.15 0.65 0
0.2 0.65 0
0.15 0.7 0
0.2 0.7 0
0 0.7 0
0.05 0.7 0
0 0.75 0
0.05 0.75 0
0.05 0.7 0
0.1 0.7 0
0.05 0.75 0
0.1 0.75 0
0 0.75 0
0.05 0.75 0
0 0.8 0
0.05 0.8 0
0.05 0.75 0
0.1 0.75 0
0.05 0.8 0
0.1 0.8 0
0.1 0.7 0
0.15 0.7 0
0.1 0.75 0
0.15 0.75 0
0.15 0.7 0
0.2 0.7 0
0.15 0.75 0
0.2 0.75 0
0.1 0.75 0
0.15 0.75 0
0.1 0.8 0
0.15 0.8 0
0.15 0.75 0
0.2 0.75 0
0.15 0.8 0
0.2 0.8 0
0 0.8 0
0.05 0.8 0
0 0.85 0
0.05 0.85 0
0.05 0.8 0
0.1 0.8 0
0.05 0.85 0
0.1 0.85 0
0 0.85 0
0.05 0.85 0
0 0.9 0
0.05 0.9 0
0.05 0.85 0
0.1 0.85 0
0.05 0.9 0
0.1 0.9 0
0.1 0.8 0
0.15 0.8 0
0.1 0.85 0
0.15 0.85 0
0.15 0.8 0
0.2 0.8 0
0.15 0.85 0
0.2 0.85 0
0.1 0.85 0
0.15 0.85 0
0.1 0.9 0
0.15 0.9 0
0.15 0.85 0
0.2 0.85 0
0.15 0.9 0
0.2 0.9 0
0 0.9 0
0.05 0.9 0
0 0.95 0
0.05 0.95 0
0.05 0.9 0
0.1 0.9 0
0.05 0.95 0
0.1 0.95 0
0 0.95 0
0.05 0.95 0
0 1 0
0.05 1 0
0.05 0.95 0
0.1 0.95 0
0.05 1 0
0.1 1 0
0.1 0.9 0
0.15 0.9 0
0.1 0.95 0
0.15 0.95 0
0.15 0.9 0
0.2 0.9 0
0.15 0.95 0
0.2 0.95 0
0.1 0.95 0
0.15 0.95 0
0.1 1 0
0.15 1 0
0.15 0.95 0
0.2 0.95 0
0.15 1 0
0.2 1 0
0.2 0 0
0.25 0 0
0.2 0.05 0
0.25 0.05 0
0.25 0 0
0.3 0 0
0.25 0.05 0
0.3 0.05 0
0.2 0.05 0
0.25 0.05 0
0.2 0.1 0
0.25 0.1 0
0.25 0.05 0
0.3 0.05 0
0.25 0.1 0
0.3 0.1 0
0.3 0 0
0.35 0 0
0.3 0.05 0
0.35 0.05 0
0.35 0 0
0.4 0 0
0.35 0.05 0
0.4 0.05 0
0.3 0.05 0
0.35 0.05 0
0.3 0.1 0
0.35 0.1 0
0.35 0.05 0
0.4 0.05 0
0.35 0.1 0
0.4 0.1 0
0.2 0.1 0
0.25 0.1 0
0.2 0.15 0
0.25 0.15 0
0.25 0.1 0
0.3 0.1 0
0.25 0.15 0
0.3 0.15 0
0.2 0.15 0
0.25 0.15 0
0.2 0.2 0
0.25 0.2 0
0.25 0.15 0
0.3 0.15 0
0.25 0.2 0
0.3 0.2 0
0.3 0.1 0
0.35 0.1 0
0.3 0.15 0
0.35 0.15 0
0.35 0.1 0
0.4 0.1 0
0.35 0.15 0
0.4 0.15 0
0.3 0.15 0
0.35 0.15 0
0.3 0.2 0
0.35 0.2 0
0.35 0.15 0
0.4 0.15 0
0.35 0.2 0
0.4 0.2 0
0.2 0.2 0
0.25 0.2 0
0.2 0.25 0
0.25 0.25 0
0.25 0.2 0
0.3 0.2 0
0.25 0.25 0
0.3 0.25 0
0.2 0.25 0
0.25 0.25 0
0.2 0.3 0
0.25 0.3 0
0.25 0.25 0
0.3 0.25 0
0.25 0.3 0
0.3 0.3 0
0.3 0.2 0
0.35 0.2 0
0.3 0.25 0
0.35 0.25 0
0.35 0.2 0
0.4 0.2 0
0.35 0.25 0
0.4 0.25 0
0.3 0.25 0
0.35 0.25 0
0.3 0.3 0
0.35 0.3 0
0.35 0.25 0
0.4 0.25 0
0.35 0.3 0
0.4 0.3 0
0.2 0.3 0
0.25 0.3 0
0.2 0.35 0
0.25 0.35 0
0.25 0.3 0
0.3 0.3 0
0.25 0.35 0
0.3 0.35 0
0.2 0.35 0
0.25 0.35 0
0.2 0.4 0
0.25 0.4 0
0.25 0.35 0
0.3 0.35 0
0.25 0.4 0
0.3 0.4 0
0.3 0.3 0
0.35 0.3 0
0.3 0.35 0
0.35 0.35 0
0.35 0.3 0
0.4 0.3 0
0.35 0.35 0
0.4 0.35 0
0.3 0.35 0
0.35 0.35 0
0.3 0.4 0
0.35 0.4 0
0.35 0.35 0
0.4 0.35 0
0.35 0.4 0
0.4 0.4 0
0.2 0.4 0
0.25 0.4 0
0.2 0.45 0
0.25 0.45 0
0.25 0.4 0
0.3 0.4 0
0.25 0.45 0
0.3 0.45 0
0.2 0.45 0
0.25 0.45 0
0.2 0.5 0
0.25 0.5 0
0.25 0.45 0
0.3 0.45 0
0.25 0.5 0
0.3 0.5 0
0.3 0.4 0
0.35 0.4 0
0.3 0.45 0
0.35 0.45 0
0.35 0.4 0
0.4 0.4 0
0.35 0.45 0
0.4 0.45 0
0.3 0.45 0
0.35 0.45 0
0.3 0.5 0
0.35 0.5 0
0.35 0.45 0
0.4 0.45 0
0.35 0.5 0
0.4 0.5 0
0.2 0.5 0
0.25 0.5 0
0.2 0.55 0
0.25 0.55 0
0.25 0.5 0
0.3 0.5 0
0.25 0.55 0
0.3 0.55 0
0.2 0.55 0
0.25 0.55 0
0.2 0.6 0
0.25 0.6 0
0.25 0.55 0
0.3 0.55 0
0.25 0.6 0
0.3 0.6 0
0.3 0.5 0
0.35 0.5 0
0.3 0.55 0
0.35 0.55 0
0.35 0.5 0
0.4 0.5 0
0.35 0.55 0
0.4 0.55 0
0.3 0.55 0
0.35 0.55 0
0.3 0.6 0
0.35 0.6 0
0.35 0.55 0
0.4 0.55 0
0.35 0.6 0
0.4 0.6 0
0.2 0.6 0
0.25 0.6 0
0.2 0.65 0
0.25 0.65 0
0.25 0.6 0
0.3 0.6 0
0.25 0.65 0
0.3 0.65 0
0.2 0.65 0
0.25 0.65 0
0.2 0.7 0
0.25 0.7 0
0.25 0.65 0
0.3 0.65 0
0.25 0.7 0
0.3 0.7 0
0.3 0.6 0
0.35 0.6 0
0.3 0.65 0
0.35 0.65 0
0.35 0.6 0
0.4 0.6 0
0.35 0.65 0
0.4 0.65 0
0.3 0.65 0
0.35 0.65 0
0.3 0.7 0
0.35 0.7 0
0.35 0.65 0
0.4 0.65 0
0.35 0.7 0
0.4 0.7 0
0.2 0.7 0
0.25 0.7 0
0.2 0.75 0
0.25 0.75 0
0.25 0.7 0
0.3 0.7 0
0.25 0.75 0
0.3 0.75 0
0.2 0.75 0
0.25 0.75 0
0.2 0.8 0
0.25 0.8 0
0.25 0.75 0
0.3 0.75 0
0.25 0.8 0
0.3 0.8 0
0.3 0.7 0
0.35 0.7 0
0.3 0.75 0
0.35 0.75 0
0.35 0.7 0
0.4 0.7 0
0.35 0.75 0
0.4 0.75 0
0.3 0.75 0
0.35 0.75 0
0.3 0.8 0
0.35 0.8 0
0.35 0.75 0
0.4 0.75 0
0.35 0.8 0
0.4 0.8 0
0.2 0.8 0
0.25 0.8 0
0.2 0.85 0
0.25 0.85 0
0.25 0.8 0
0.3 0.8 0
0.25 0.85 0
0.3 0.85 0
0.2 0.85 0
0.25 0.85 0
0.2 0.9 0
0.25 0.9 0
0.25 0.85 0
0.3 0.85 0
0.25 0.9 0
0.3 0.9 0
0.3 0.8 0
0.35 0.8 0
0.3 0.85 0
0.35 0.85 0
0.35 0.8 0
0.4 0.8 0
0.35 0.85 0
0.4 0.85 0
0.3 0.85 0
0.35 0.85 0
0.3 0.9 0
0.35 0.9 0
0.35 0.85 0
0.4 0.85 0
0.35 0.9 0
0.4 0.9 0
0.2 0.9 0
0.25 0.9 0
0.2 0.95 0
0.25 0.95 0
0.25 0.9 0
0.3 0.9 0
0.25 0.95 0
0.3 0.95 0
0.2 0.95 0
0.25 0.95 0
0.2 1 0
0.25 1 0
0.25 0.95 0
0.3 0.95 0
0.25 1 0
0.3 1 0
0.3 0.9 0
0.35 0.9 0
0.3 0.95 0
0.35 0.95 0
0.35 0.9 0
0.4 0.9 0
0.35 0.95 0
0.4 0.95 0
0.3 0.95 0
0.35 0.95 0
0.3 1 0
0.35 1 0
0.35 0.95 0
0.4 0.95 0
0.35 1 0
0.4 1 0
0.4 0 0
0.45 0 0
0.4 0.05 0
0.45 0.05 0
0.45 0 0
0.5 0 0
0.45 0.05 0
0.5 0.05 0
0.4 0.05 0
0.45 0.05 0
0.4 0.1 0
0.45 0.1 0
0.45 0.05 0
0.5 0.05 0
0.45 0.1 0
0.5 0.1 0
0.5 0 0
0.55 0 0
0.5 0.05 0
0.55 0.05 0
0.55 0 0
0.6 0 0
0.55 0.05 0
0.6 0.05 0
0.5 0.05 0
0.55 0.05 0
0.5 0.1 0
0.55 0.1 0
0.55 0.05 0
0.6 0.05 0
0.55 0.1 0
0.6 0.1 0
0.4 0.1 0
0.45 0.1 0
0.4 0.15 0
0.45 0.15 0
0.45 0.1 0
0.5 0.1 0
0.45 0.15 0
0.5 0.15 0
0.4 0.15 0
0.45 0.15 0
0.4 0.2 0
0.45 0.2 0
0.45 0.15 0
0.5 0.15 0
0.45 0.2 0
0.5 0.2 0
0.5 0.1 0
0.55 0.1 0
0.5 0.15 0
0.55 0.15 0
0.55 0.1 0
0.6 0.1 0
0.55 0.15 0
0.6 0.15 0
0.5 0.15 0
0.55 0.15 0
0.5 0.2 0
0.55 0.2 0
0.55 0.15 0
0.6 0.15 0
0.55 0.2 0
0.6 0.2 0
0.4 0.2 0
0.45 0.2 0
0.4 0.25 0
0.45 0.25 0
0.45 0.2 0
0.5 0.2 0
0.45 0.25 0
0.5 0.25 0
0.4 0.25 0
0.45 0.25 0
0.4 0.3 0
0.45 0.3 0
0.45 0.25 0
0.5 0.25 0
0.45 0.3 0
0.5 0.3 0
0.5 0.2 0
0.55 0.2 0
0.5 0.25 0
0.55 0.25 0
0.55 0.2 0
0.6 0.2 0
0.55 0.25 0
0.6 0.25 0
0.5 0.25 0
0.55 0.25 0
0.5 0.3 0
0.55 0.3 0
0.55 0.25 0
0.6 0.25 0
0.55 0.3 0
0.6 0.3 0
0.4 0.3 0
0.45 0.3 0
0.4 0.35 0
0.45 0.35 0
0.45 0.3 0
0.5 0.3 0
0.45 0.35 0
0.5 0.35 0
0.4 0.35 0
0.45 0.35 0
0.4 0.4 0
0.45 0.4 0
0.45 0.35 0
0.5 0.35 0
0.45 0.4 0
0.5 0.4 0
0.5 0.3 0
0.55 0.3 0
0.5 0.35 0
0.55 0.35 0
0.55 0.3 0
0.6 0.3 0
0.55 0.35 0
0.6 0.35 0
0.5 0.35 0
0.55 0.35 0
0.5 0.4 0
0.55 0.4 0
0.55 0.35 0
0.6 0.35 0
0.55 0.4 0
0.6 0.4 0
0.4 0.4 0
0.45 0.4 0
0.4 0.45 0
0.45 0.45 0
0.45 0.4 0
0.5 0.4 0
0.45 0.45 0
0.5 0.45 0
0.4 0.45 0
0.45 0.45 0
0.4 0.5 0
0.45 0.5 0
0.45 0.45 0
0.5 0.45 0
0.45 0.5 0
0.5 0.5 0
0.5 0.4 0
0.55 0.4 0
0.5 0.45 0
0.55 0.45 0
0.55 0.4 0
0.6 0.4 0
0.55 0.45 0
0.6 0.45 0
0.5 0.45 0
0.55 0.45 0
0.5 0.5 0
0.55 0.5 0
0.55 0.45 0
0.6 0.45 0
0.55 0.5 0
0.6 0.5 0
0.4 0.5 0
0.45 0.5 0
0.4 0.55 0
0.45 0.55 0
0.45 0.5 0
0.5 0.5 0
0.45 0.55 0
0.5 0.55 0
0.4 0.55 0
0.45 0.55 0
0.4 0.6 0
0.45 0.6 0
0.45 0.55 0
0.5 0.55 0
0.45 0.6 0
0.5 0.6 0
0.5 0.5 0
0.55 0.5 0
0.5 0.55 0
0.55 0.55 0
0.55 0.5 0
0.6 0.5 0
0.55 0.55 0
0.6 0.55 0
0.5 0.55 0
0.55 0.55 0
0.5 0.6 0
0.55 0.6 0
0.55 0.55 0
0.6 0.55 0
0.55 0.6 0
0.6 0.6 0
0.4 0.6 0
0.45 0.6 0
0.4 0.65 0
0.45 0.65 0
0.45 0.6 0
0.5 0.6 0
0.45 0.65 0
0.5 0.65 0
0.4 0.65 0
0.45 0.65 0
0.4 0.7 0
0.45 0.7 0
0.45 0.65 0
0.5 0.65 0
0.45 0.7 0
0.5 0.7 0
0.5 0.6 0
0.55 0.6 0
0.5 0.65 0
0.55 0.65 0
0.55 0.6 0
0.6 0.6 0
0.55 0.65 0
0.6 0.65 0
0.5 0.65 0
0.55 0.65 0
0.5 0.7 0
0.55 0.7 0
0.55 0.65 0
0.6 0.65 0
0.55 0.7 0
0.6 0.7 0
0.4 0.7 0
0.45 0.7 0
0.4 0.75 0
0.45 0.75 0
0.45 0.7 0
0.5 0.7 0
0.45 0.75 0
0.5 0.75 0
0.4 0.75 0
0.45 0.75 0
0.4 0.8 0
0.45 0.8 0
0.45 0.75 0
0.5 0.75 0
0.45 0.8 0
0.5 0.8 0
0.5 0.7 0
0.55 0.7 0
0.5 0.75 0
0.55 0.75 0
0.55 0.7 0
0.6 0.7 0
0.55 0.75 0
0.6 0.75 0
0.5 0.75 0
0.55 0.75 0
0.5 0.8 0
0.55 0.8 0
0.55 0.75 0
0.6 0.75 0
0.55 0.8 0
0.6 0.8 0
0.4 0.8 0
0.45 0.8 0
0.4 0.85 0
0.45 0.85 0
0.45 0.8 0
0.5 0.8 0
0.45 0.85 0
0.5 0.85 0
0.4 0.85 0
0.45 0.85 0
0.4 0.9 0
0.45 0.9 0
0.45 0.85 0
[...]
POINT_DATA 1600
VECTORS velocity double
0 0 0
0.156434 0 0
0 -0.156434 0
0.154506 -0.154506 0
0.156434 0 0
0.309017 0 0
0.154506 -0.154506 0
0.30521 -0.148779 0
0 -0.156434 0
0.154506 -0.154506 0
0 -0.309017 0
0.148778 -0.30521 0
0.154506 -0.154506 0
0.30521 -0.148779 0
0.148778 -0.30521 0
0.293896 -0.293897 0
0.309017 0 0
0.45399 0 0
0.30521 -0.148779 0
0.448404 -0.139387 0
0.45399 0 0
0.587785 0 0
0.448404 -0.139387 0
0.580553 -0.12656 0
0.30521 -0.148779 0
0.448404 -0.139387 0
0.293896 -0.293897 0
0.431767 -0.275336 0
0.448404 -0.139387 0
0.580553 -0.12656 0
0.431767 -0.275336 0
0.559015 -0.250001 0
0 -0.309017 0
0.148778 -0.30521 0
0 -0.45399 0
0.139386 -0.448406 0
0.148778 -0.30521 0
0.293896 -0.293897 0
0.139386 -0.448406 0
0.275334 -0.431768 0
0 -0.45399 0
0.139386 -0.448406 0
0 -0.587785 0
0.126559 -0.580556 0
0.139386 -0.448406 0
0.275334 -0.431768 0
0.126559 -0.580556 0
0.25 -0.559017 0
0.293896 -0.293897 0
0.431767 -0.275336 0
0.275334 -0.431768 0
0.40451 -0.404511 0
0.431767 -0.275336 0
0.559015 -0.250001 0
0.40451 -0.404511 0
0.523718 -0.367286 0
0.275334 -0.431768 0
0.40451 -0.404511 0
0.25 -0.559017 0
0.367284 -0.523719 0
0.40451 -0.404511 0
0.523718 -0.367286 0
0.367284 -0.523719 0
0.475529 -0.475531 0
0 -0.587785 0
0.126559 -0.580556 0
0 -0.707107 0
0.110616 -0.698406 0
0.126559 -0.580556 0
0.25 -0.559017 0
0.110616 -0.698406 0
0.218508 -0.672505 0
0 -0.707107 0
0.110616 -0.698406 0
0 -0.809017 0
0.0919498 -0.799058 0
0.110616 -0.698406 0
0.218508 -0.672505 0
0.0919498 -0.799058 0
0.181635 -0.769425 0
0.25 -0.559017 0
0.367284 -0.523719 0
0.218508 -0.672505 0
0.321019 -0.630039 0
0.367284 -0.523719 0
0.475529 -0.475531 0
0.321019 -0.630039 0
0.415625 -0.57206 0
0.218508 -0.672505 0
0.321019 -0.630039 0
0.181635 -0.769425 0
0.266849 -0.720846 0
0.321019 -0.630039 0
0.415625 -0.57206 0
0.266849 -0.720846 0
0.345491 -0.654514 0
0 -0.809017 0
0.0919498 -0.799058 0
0 -0.891007 0
0.0710197 -0.880037 0
0.0919498 -0.799058 0
0.181635 -0.769425 0
0.0710197 -0.880037 0
0.14029 -0.847399 0
0 -0.891007 0
0.0710197 -0.880037 0
0 -0.951057 0
0.0483408 -0.939346 0
0.0710197 -0.880037 0
0.14029 -0.847399 0
0.0483408 -0.939346 0
0.0954911 -0.904507 0
0.181635 -0.769425 0
0.266849 -0.720846 0
0.14029 -0.847399 0
0.206107 -0.793896 0
0.266849 -0.720846 0
0.345491 -0.654514 0
0.206107 -0.793896 0
0.266848 -0.720845 0
0.14029 -0.847399 0
0.206107 -0.793896 0
0.0954911 -0.904507 0
0.14029 -0.847397 0
0.206107 -0.793896 0
0.266848 -0.720845 0
0.14029 -0.847397 0
0.181635 -0.769421 0
0 -0.951057 0
0.0483408 -0.939346 0
0 -0.987688 0
0.0244716 -0.975527 0
0.0483408 -0.939346 0
0.0954911 -0.904507 0
0.0244716 -0.975527 0
0.0483405 -0.939345 0
0 -0.987688 0
0.0244716 -0.975527 0
0 -1 0
-1.54781e-07 -0.987686 0
0.0244716 -0.975527 0
0.0483405 -0.939345 0
-1.54781e-07 -0.987686 0
-4.34013e-07 -0.951053 0
0.0954911 -0.904507 0
0.14029 -0.847397 0
0.0483405 -0.939345 0
0.0710191 -0.880034 0
0.14029 -0.847397 0
0.181635 -0.769421 0
0.0710191 -0.880034 0
0.091949 -0.799054 0
0.0483405 -0.939345 0
0.0710191 -0.880034 0
-4.34013e-07 -0.951053 0
-6.56734e-07 -0.891003 0
0.0710191 -0.880034 0
0.091949 -0.799054 0
-6.56734e-07 -0.891003 0
-8.99927e-07 -0.809012 0
0 -1 0
-1.54781e-07 -0.987686 0
0 -0.987688 0
-0.0244719 -0.975526 0
-1.54781e-07 -0.987686 0
-4.34013e-07 -0.951053 0
-0.0244719 -0.975526 0
-0.0483414 -0.939344 0
0 -0.987688 0
-0.0244719 -0.975526 0
0 -0.951057 0
-0.0483411 -0.939345 0
-0.0244719 -0.975526 0
-0.0483414 -0.939344 0
-0.0483411 -0.939345 0
-0.095492 -0.904505 0
-4.34013e-07 -0.951053 0
-6.56734e-07 -0.891003 0
-0.0483414 -0.939344 0
-0.0710204 -0.880032 0
-6.56734e-07 -0.891003 0
-8.99927e-07 -0.809012 0
-0.0710204 -0.880032 0
-0.0919508 -0.799052 0
-0.0483414 -0.939344 0
-0.0710204 -0.880032 0
-0.095492 -0.904505 0
-0.140291 -0.847394 0
-0.0710204 -0.880032 0
-0.0919508 -0.799052 0
-0.140291 -0.847394 0
-0.181636 -0.769417 0
0 -0.951057 0
-0.0483411 -0.939345 0
0 -0.891007 0
-0.0710201 -0.880034 0
-0.0483411 -0.939345 0
-0.095492 -0.904505 0
-0.0710201 -0.880034 0
-0.140291 -0.847395 0
0 -0.891007 0
-0.0710201 -0.880034 0
0 -0.809017 0
-0.0919503 -0.799056 0
-0.0710201 -0.880034 0
-0.140291 -0.847395 0
-0.0919503 -0.799056 0
-0.181636 -0.76942 0
-0.095492 -0.904505 0
-0.140291 -0.847394 0
-0.140291 -0.847395 0
-0.206108 -0.79389 0
-0.140291 -0.847394 0
-0.181636 -0.769417 0
-0.206108 -0.79389 0
-0.26685 -0.720837 0
-0.140291 -0.847395 0
-0.206108 -0.79389 0
-0.181636 -0.76942 0
-0.26685 -0.720839 0
-0.206108 -0.79389 0
-0.26685 -0.720837 0
-0.26685 -0.720839 0
-0.345493 -0.654507 0
0 -0.809017 0
-0.0919503 -0.799056 0
0 -0.707107 0
-0.110617 -0.698404 0
-0.0919503 -0.799056 0
-0.181636 -0.76942 0
-0.110617 -0.698404 0
-0.21851 -0.6725 0
0 -0.707107 0
-0.110617 -0.698404 0
0 -0.587785 0
-0.126561 -0.580555 0
-0.110617 -0.698404 0
-0.21851 -0.6725 0
-0.126561 -0.580555 0
-0.250001 -0.559012 0
-0.181636 -0.76942 0
-0.26685 -0.720839 0
-0.21851 -0.6725 0
-0.321021 -0.630034 0
-0.26685 -0.720839 0
-0.345493 -0.654507 0
-0.321021 -0.630034 0
-0.415627 -0.572057 0
-0.21851 -0.6725 0
-0.321021 -0.630034 0
-0.250001 -0.559012 0
-0.367286 -0.523717 0
-0.321021 -0.630034 0
-0.415627 -0.572057 0
-0.367286 -0.523717 0
-0.475531 -0.475529 0
0 -0.587785 0
-0.126561 -0.580555 0
0 -0.45399 0
-0.139389 -0.448405 0
-0.126561 -0.580555 0
-0.250001 -0.559012 0
-0.139389 -0.448405 0
-0.275335 -0.431765 0
0 -0.45399 0
-0.139389 -0.448405 0
0 -0.309017 0
-0.148779 -0.305205 0
-0.139389 -0.448405 0
-0.275335 -0.431765 0
-0.148779 -0.305205 0
-0.293902 -0.2939 0
-0.250001 -0.559012 0
-0.367286 -0.523717 0
-0.275335 -0.431765 0
-0.404512 -0.404511 0
-0.367286 -0.523717 0
-0.475531 -0.475529 0
-0.404512 -0.404511 0
-0.523719 -0.367285 0
-0.275335 -0.431765 0
-0.404512 -0.404511 0
-0.293902 -0.2939 0
-0.431767 -0.275334 0
-0.404512 -0.404511 0
-0.523719 -0.367285 0
-0.431767 -0.275334 0
-0.559016 -0.25 0
0 -0.309017 0
-0.148779 -0.305205 0
0 -0.156434 0
-0.154501 -0.1545 0
-0.148779 -0.305205 0
-0.293902 -0.2939 0
-0.154501 -0.1545 0
-0.305206 -0.148777 0
0 -0.156434 0
-0.154501 -0.1545 0
0 -1.22465e-16 0
-0.156434 -1.20957e-16 0
-0.154501 -0.1545 0
-0.305206 -0.148777 0
-0.156434 -1.20957e-16 0
-0.309017 -1.16471e-16 0
-0.293902 -0.2939 0
-0.431767 -0.275334 0
-0.305206 -0.148777 0
-0.448409 -0.139389 0
-0.431767 -0.275334 0
-0.559016 -0.25 0
-0.448409 -0.139389 0
-0.580562 -0.126561 0
-0.305206 -0.148777 0
-0.448409 -0.139389 0
-0.309017 -1.16471e-16 0
-0.45399 -1.09117e-16 0
-0.448409 -0.139389 0
-0.580562 -0.126561 0
-0.45399 -1.09117e-16 0
-0.587785 -9.9076e-17 0
0.587785 0 0
0.707107 0 0
0.580553 -0.12656 0
0.698404 -0.110617 0
0.707107 0 0
0.809017 0 0
0.698404 -0.110617 0
0.799058 -0.0919505 0
0.580553 -0.12656 0
0.698404 -0.110617 0
0.559015 -0.250001 0
0.6725 -0.218509 0
0.698404 -0.110617 0
0.799058 -0.0919505 0
0.6725 -0.218509 0
0.769421 -0.181636 0
0.809017 0 0
0.891007 0 0
0.799058 -0.0919505 0
0.880038 -0.0710204 0
0.891007 0 0
0.951057 0 0
0.880038 -0.0710204 0
0.939348 -0.0483416 0
0.799058 -0.0919505 0
0.880038 -0.0710204 0
0.769421 -0.181636 0
0.847397 -0.140292 0
0.880038 -0.0710204 0
0.939348 -0.0483416 0
0.847397 -0.140292 0
0.904508 -0.0954923 0
0.559015 -0.250001 0
0.6725 -0.218509 0
0.523718 -0.367286 0
0.630035 -0.321021 0
0.6725 -0.218509 0
0.769421 -0.181636 0
0.630035 -0.321021 0
0.72084 -0.26685 0
0.523718 -0.367286 0
0.630035 -0.321021 0
0.475529 -0.475531 0
0.572058 -0.415627 0
0.630035 -0.321021 0
0.72084 -0.26685 0
0.572058 -0.415627 0
0.654508 -0.345493 0
0.769421 -0.181636 0
0.847397 -0.140292 0
0.72084 -0.26685 0
0.793891 -0.206108 0
0.847397 -0.140292 0
0.904508 -0.0954923 0
0.793891 -0.206108 0
0.847396 -0.140292 0
0.72084 -0.26685 0
0.793891 -0.206108 0
0.654508 -0.345493 0
0.720838 -0.26685 0
0.793891 -0.206108 0
0.847396 -0.140292 0
0.720838 -0.26685 0
0.769418 -0.181637 0
0.475529 -0.475531 0
0.572058 -0.415627 0
0.415625 -0.57206 0
0.5 -0.500002 0
0.572058 -0.415627 0
0.654508 -0.345493 0
0.5 -0.500002 0
0.572058 -0.415628 0
0.415625 -0.57206 0
0.5 -0.500002 0
0.345491 -0.654514 0
0.415625 -0.572062 0
0.5 -0.500002 0
0.572058 -0.415628 0
0.415625 -0.572062 0
0.475525 -0.475529 0
0.654508 -0.345493 0
0.720838 -0.26685 0
0.572058 -0.415628 0
0.630036 -0.321021 0
0.720838 -0.26685 0
0.769418 -0.181637 0
0.630036 -0.321021 0
0.672495 -0.218509 0
0.572058 -0.415628 0
0.630036 -0.321021 0
0.475525 -0.475529 0
0.523719 -0.367289 0
0.630036 -0.321021 0
0.672495 -0.218509 0
0.523719 -0.367289 0
0.559014 -0.250002 0
0.345491 -0.654514 0
0.415625 -0.572062 0
0.266848 -0.720845 0
0.321019 -0.630044 0
0.415625 -0.572062 0
0.475525 -0.475529 0
0.321019 -0.630044 0
0.367285 -0.523727 0
0.266848 -0.720845 0
0.321019 -0.630044 0
0.181635 -0.769421 0
0.218507 -0.672501 0
0.321019 -0.630044 0
0.367285 -0.523727 0
0.218507 -0.672501 0
0.249998 -0.559022 0
0.475525 -0.475529 0
0.523719 -0.367289 0
0.367285 -0.523727 0
0.404504 -0.404511 0
0.523719 -0.367289 0
0.559014 -0.250002 0
0.404504 -0.404511 0
0.431769 -0.27534 0
0.367285 -0.523727 0
0.404504 -0.404511 0
0.249998 -0.559022 0
0.275334 -0.431779 0
0.404504 -0.404511 0
0.431769 -0.27534 0
0.275334 -0.431779 0
0.293889 -0.2939 0
0.181635 -0.769421 0
0.218507 -0.672501 0
0.091949 -0.799054 0
0.110615 -0.698398 0
0.218507 -0.672501 0
0.249998 -0.559022 0
0.110615 -0.698398 0
0.126556 -0.580546 0
0.091949 -0.799054 0
0.110615 -0.698398 0
-8.99927e-07 -0.809012 0
-1.18895e-06 -0.707102 0
0.110615 -0.698398 0
0.126556 -0.580546 0
-1.18895e-06 -0.707102 0
-1.73497e-06 -0.58778 0
0.249998 -0.559022 0
0.275334 -0.431779 0
0.126556 -0.580546 0
0.139381 -0.4484 0
0.275334 -0.431779 0
0.293889 -0.2939 0
0.139381 -0.4484 0
0.148773 -0.305215 0
0.126556 -0.580546 0
0.139381 -0.4484 0
-1.73497e-06 -0.58778 0
-3.02166e-06 -0.453985 0
0.139381 -0.4484 0
0.148773 -0.305215 0
-3.02166e-06 -0.453985 0
-4.74531e-06 -0.309011 0
-8.99927e-07 -0.809012 0
-1.18895e-06 -0.707102 0
-0.0919508 -0.799052 0
-0.110617 -0.698396 0
-1.18895e-06 -0.707102 0
-1.73497e-06 -0.58778 0
-0.110617 -0.698396 0
-0.12656 -0.580543 0
-0.0919508 -0.799052 0
-0.110617 -0.698396 0
-0.181636 -0.769417 0
-0.218509 -0.672494 0
-0.110617 -0.698396 0
-0.12656 -0.580543 0
-0.218509 -0.672494 0
-0.250002 -0.559014 0
-1.73497e-06 -0.58778 0
-3.02166e-06 -0.453985 0
-0.12656 -0.580543 0
-0.139387 -0.448395 0
-3.02166e-06 -0.453985 0
-4.74531e-06 -0.309011 0
-0.139387 -0.448395 0
-0.148783 -0.305207 0
-0.12656 -0.580543 0
-0.139387 -0.448395 0
-0.250002 -0.559014 0
-0.27534 -0.431769 0
-0.139387 -0.448395 0
-0.148783 -0.305207 0
-0.27534 -0.431769 0
-0.293899 -0.293889 0
-0.181636 -0.769417 0
-0.218509 -0.672494 0
-0.26685 -0.720837 0
-0.321021 -0.630036 0
-0.218509 -0.672494 0
-0.250002 -0.559014 0
-0.321021 -0.630036 0
-0.367288 -0.523718 0
-0.26685 -0.720837 0
-0.321021 -0.630036 0
-0.345493 -0.654507 0
-0.415627 -0.572057 0
-0.321021 -0.630036 0
-0.367288 -0.523718 0
-0.415627 -0.572057 0
-0.475529 -0.475525 0
-0.250002 -0.559014 0
-0.27534 -0.431769 0
-0.367288 -0.523718 0
-0.404511 -0.404503 0
-0.27534 -0.431769 0
-0.293899 -0.293889 0
-0.404511 -0.404503 0
-0.431779 -0.275334 0
-0.367288 -0.523718 0
-0.404511 -0.404503 0
-0.475529 -0.475525 0
-0.523727 -0.367285 0
-0.404511 -0.404503 0
-0.431779 -0.275334 0
-0.523727 -0.367285 0
-0.559022 -0.249999 0
-0.345493 -0.654507 0
-0.415627 -0.572057 0
-0.415627 -0.572057 0
-0.500002 -0.5 0
-0.415627 -0.572057 0
-0.475529 -0.475525 0
-0.500002 -0.5 0
-0.572062 -0.415625 0
-0.415627 -0.572057 0
-0.500002 -0.5 0
-0.475531 -0.475529 0
-0.57206 -0.415625 0
-0.500002 -0.5 0
-0.572062 -0.415625 0
-0.57206 -0.415625 0
-0.654515 -0.345492 0
-0.475529 -0.475525 0
-0.523727 -0.367285 0
-0.572062 -0.415625 0
-0.630046 -0.32102 0
-0.523727 -0.367285 0
-0.559022 -0.249999 0
-0.630046 -0.32102 0
-0.672501 -0.218507 0
-0.572062 -0.415625 0
-0.630046 -0.32102 0
-0.654515 -0.345492 0
-0.720847 -0.266849 0
-0.630046 -0.32102 0
-0.672501 -0.218507 0
-0.720847 -0.266849 0
-0.769421 -0.181635 0
-0.475531 -0.475529 0
-0.57206 -0.415625 0
-0.523719 -0.367285 0
-0.630039 -0.321019 0
-0.57206 -0.415625 0
-0.654515 -0.345492 0
-0.630039 -0.321019 0
-0.720849 -0.266849 0
-0.523719 -0.367285 0
-0.630039 -0.321019 0
-0.559016 -0.25 0
-0.672508 -0.218509 0
-0.630039 -0.321019 0
-0.720849 -0.266849 0
-0.672508 -0.218509 0
-0.769429 -0.181636 0
-0.654515 -0.345492 0
-0.720847 -0.266849 0
-0.720849 -0.266849 0
-0.793897 -0.206107 0
-0.720847 -0.266849 0
-0.769421 -0.181635 0
-0.793897 -0.206107 0
-0.847396 -0.140291 0
-0.720849 -0.266849 0
-0.793897 -0.206107 0
-0.769429 -0.181636 0
-0.847399 -0.140291 0
-0.793897 -0.206107 0
-0.847396 -0.140291 0
-0.847399 -0.140291 0
-0.904506 -0.0954916 0
-0.559016 -0.25 0
-0.672508 -0.218509 0
-0.580562 -0.126561 0
-0.698411 -0.110617 0
-0.672508 -0.218509 0
-0.769429 -0.181636 0
-0.698411 -0.110617 0
-0.79906 -0.0919501 0
-0.580562 -0.126561 0
-0.698411 -0.110617 0
-0.587785 -9.9076e-17 0
-0.707107 -8.65956e-17 0
-0.698411 -0.110617 0
-0.79906 -0.0919501 0
-0.707107 -8.65956e-17 0
-0.809017 -7.19829e-17 0
-0.769429 -0.181636 0
-0.847399 -0.140291 0
-0.79906 -0.0919501 0
-0.880036 -0.0710199 0
-0.847399 -0.140291 0
-0.904506 -0.0954916 0
-0.880036 -0.0710199 0
-0.939345 -0.0483411 0
-0.79906 -0.0919501 0
-0.880036 -0.0710199 0
-0.809017 -7.19829e-17 0
-0.891007 -5.55978e-17 0
-0.880036 -0.0710199 0
-0.939345 -0.0483411 0
-0.891007 -5.55978e-17 0
-0.951057 -3.78437e-17 0
0.951057 0 0
0.987688 0 0
0.939348 -0.0483416 0
0.975529 -0.0244724 0
0.987688 0 0
1 0 0
0.975529 -0.0244724 0
0.987689 -6.35859e-07 0
0.939348 -0.0483416 0
0.975529 -0.0244724 0
0.904508 -0.0954923 0
0.939347 -0.0483418 0
0.975529 -0.0244724 0
0.987689 -6.35859e-07 0
0.939347 -0.0483418 0
0.951056 -8.83937e-07 0
1 0 0
0.987688 0 0
0.987689 -6.35859e-07 0
0.975529 0.0244711 0
0.987688 0 0
0.951057 0 0
0.975529 0.0244711 0
0.939348 0.0483402 0
0.987689 -6.35859e-07 0
0.975529 0.0244711 0
0.951056 -8.83937e-07 0
0.939347 0.04834 0
0.975529 0.0244711 0
0.939348 0.0483402 0
0.939347 0.04834 0
0.904508 0.0954905 0
0.904508 -0.0954923 0
0.939347 -0.0483418 0
0.847396 -0.140292 0
0.880035 -0.0710208 0
0.939347 -0.0483418 0
0.951056 -8.83937e-07 0
0.880035 -0.0710208 0
0.891005 -1.13969e-06 0
0.847396 -0.140292 0
0.880035 -0.0710208 0
0.769418 -0.181637 0
0.799054 -0.0919512 0
0.880035 -0.0710208 0
0.891005 -1.13969e-06 0
0.799054 -0.0919512 0
0.809014 -1.41383e-06 0
0.951056 -8.83937e-07 0
0.939347 0.04834 0
0.891005 -1.13969e-06 0
0.880036 0.0710186 0
0.939347 0.04834 0
0.904508 0.0954905 0
0.880036 0.0710186 0
0.847397 0.140289 0
0.891005 -1.13969e-06 0
0.880036 0.0710186 0
0.809014 -1.41383e-06 0
0.799055 0.0919484 0
0.880036 0.0710186 0
0.847397 0.140289 0
0.799055 0.0919484 0
0.769421 0.181634 0
0.769418 -0.181637 0
0.799054 -0.0919512 0
0.672495 -0.218509 0
0.698397 -0.110617 0
0.799054 -0.0919512 0
0.809014 -1.41383e-06 0
0.698397 -0.110617 0
0.707103 -1.72556e-06 0
0.672495 -0.218509 0
0.698397 -0.110617 0
0.559014 -0.250002 0
0.580544 -0.12656 0
0.698397 -0.110617 0
0.707103 -1.72556e-06 0
0.580544 -0.12656 0
0.587781 -2.28639e-06 0
0.809014 -1.41383e-06 0
0.799055 0.0919484 0
0.707103 -1.72556e-06 0
0.698399 0.110614 0
0.799055 0.0919484 0
0.769421 0.181634 0
0.698399 0.110614 0
0.672499 0.218506 0
0.707103 -1.72556e-06 0
0.698399 0.110614 0
0.587781 -2.28639e-06 0
0.580546 0.126556 0
0.698399 0.110614 0
0.672499 0.218506 0
0.580546 0.126556 0
0.559021 0.249997 0
0.559014 -0.250002 0
0.580544 -0.12656 0
0.431769 -0.27534 0
0.448396 -0.139387 0
0.580544 -0.12656 0
0.587781 -2.28639e-06 0
0.448396 -0.139387 0
0.453985 -3.61454e-06 0
0.431769 -0.27534 0
0.448396 -0.139387 0
0.293889 -0.2939 0
0.305208 -0.148783 0
0.448396 -0.139387 0
0.453985 -3.61454e-06 0
0.305208 -0.148783 0
0.309011 -5.54624e-06 0
0.587781 -2.28639e-06 0
0.580546 0.126556 0
0.453985 -3.61454e-06 0
0.4484 0.13938 0
0.580546 0.126556 0
0.559021 0.249997 0
0.4484 0.13938 0
0.431778 0.275333 0
0.453985 -3.61454e-06 0
0.4484 0.13938 0
0.309011 -5.54624e-06 0
0.305214 0.148772 0
0.4484 0.13938 0
0.431778 0.275333 0
0.305214 0.148772 0
0.293899 0.293888 0
0.293889 -0.2939 0
0.305208 -0.148783 0
0.148773 -0.305215 0
0.154506 -0.154516 0
0.305208 -0.148783 0
0.309011 -5.54624e-06 0
0.154506 -0.154516 0
0.156429 -6.19853e-06 0
0.148773 -0.305215 0
0.154506 -0.154516 0
-4.74531e-06 -0.309011 0
-4.98374e-06 -0.156429 0
0.154506 -0.154516 0
0.156429 -6.19853e-06 0
-4.98374e-06 -0.156429 0
5.04595e-07 -1.0709e-06 0
0.309011 -5.54624e-06 0
0.305214 0.148772 0
0.156429 -6.19853e-06 0
0.154515 0.154505 0
0.305214 0.148772 0
0.293899 0.293888 0
0.154515 0.154505 0
0.148783 0.305206 0
0.156429 -6.19853e-06 0
0.154515 0.154505 0
5.04595e-07 -1.0709e-06 0
6.19373e-06 0.156427 0
0.154515 0.154505 0
0.148783 0.305206 0
6.19373e-06 0.156427 0
5.28359e-06 0.30901 0
-4.74531e-06 -0.309011 0
-4.98374e-06 -0.156429 0
-0.148783 -0.305207 0
-0.154515 -0.154506 0
-4.98374e-06 -0.156429 0
5.04595e-07 -1.0709e-06 0
-0.154515 -0.154506 0
-0.156427 4.97894e-06 0
-0.148783 -0.305207 0
-0.154515 -0.154506 0
-0.293899 -0.293889 0
-0.305214 -0.148773 0
-0.154515 -0.154506 0
-0.156427 4.97894e-06 0
-0.305214 -0.148773 0
-0.309009 4.48264e-06 0
5.04595e-07 -1.0709e-06 0
6.19373e-06 0.156427 0
-0.156427 4.97894e-06 0
-0.154505 0.154514 0
6.19373e-06 0.156427 0
5.28359e-06 0.30901 0
-0.154505 0.154514 0
-0.148772 0.305214 0
-0.156427 4.97894e-06 0
-0.154505 0.154514 0
-0.309009 4.48264e-06 0
-0.305205 0.148782 0
-0.154505 0.154514 0
-0.148772 0.305214 0
-0.305205 0.148782 0
-0.293888 0.293898 0
-0.293899 -0.293889 0
-0.305214 -0.148773 0
-0.431779 -0.275334 0
-0.448399 -0.139381 0
-0.305214 -0.148773 0
-0.309009 4.48264e-06 0
-0.448399 -0.139381 0
-0.453983 2.54402e-06 0
-0.431779 -0.275334 0
-0.448399 -0.139381 0
-0.559022 -0.249999 0
-0.580545 -0.126557 0
-0.448399 -0.139381 0
-0.453983 2.54402e-06 0
-0.580545 -0.126557 0
-0.587778 1.16634e-06 0
-0.309009 4.48264e-06 0
-0.305205 0.148782 0
-0.453983 2.54402e-06 0
-0.448393 0.139386 0
-0.305205 0.148782 0
-0.293888 0.293898 0
-0.448393 0.139386 0
-0.431767 0.275339 0
-0.453983 2.54402e-06 0
-0.448393 0.139386 0
-0.587778 1.16634e-06 0
-0.58054 0.126559 0
-0.448393 0.139386 0
-0.431767 0.275339 0
-0.58054 0.126559 0
-0.559012 0.250001 0
-0.559022 -0.249999 0
-0.580545 -0.126557 0
-0.672501 -0.218507 0
-0.698397 -0.110615 0
-0.580545 -0.126557 0
-0.587778 1.16634e-06 0
-0.698397 -0.110615 0
-0.707099 6.12445e-07 0
-0.672501 -0.218507 0
-0.698397 -0.110615 0
-0.769421 -0.181635 0
-0.799052 -0.0919495 0
-0.698397 -0.110615 0
-0.707099 6.12445e-07 0
-0.799052 -0.0919495 0
-0.80901 3.34336e-07 0
-0.587778 1.16634e-06 0
-0.58054 0.126559 0
-0.707099 6.12445e-07 0
-0.698393 0.110616 0
-0.58054 0.126559 0
-0.559012 0.250001 0
-0.698393 0.110616 0
-0.672492 0.218508 0
-0.707099 6.12445e-07 0
-0.698393 0.110616 0
-0.80901 3.34336e-07 0
-0.799049 0.0919501 0
-0.698393 0.110616 0
-0.672492 0.218508 0
-0.799049 0.0919501 0
-0.769414 0.181636 0
-0.769421 -0.181635 0
-0.799052 -0.0919495 0
-0.847396 -0.140291 0
-0.880032 -0.0710196 0
-0.799052 -0.0919495 0
-0.80901 3.34336e-07 0
-0.880032 -0.0710196 0
-0.891 1.01731e-07 0
-0.847396 -0.140291 0
-0.880032 -0.0710196 0
-0.904506 -0.0954916 0
-0.939343 -0.048341 0
-0.880032 -0.0710196 0
-0.891 1.01731e-07 0
-0.939343 -0.048341 0
-0.951051 -9.86379e-08 0
-0.80901 3.34336e-07 0
-0.799049 0.0919501 0
-0.891 1.01731e-07 0
-0.88003 0.0710198 0
-0.799049 0.0919501 0
-0.769414 0.181636 0
-0.88003 0.0710198 0
-0.847391 0.140291 0
-0.891 1.01731e-07 0
-0.88003 0.0710198 0
-0.951051 -9.86379e-08 0
-0.939341 0.0483407 0
-0.88003 0.0710198 0
-0.847391 0.140291 0
-0.939341 0.0483407 0
-0.904502 0.0954913 0
-0.904506 -0.0954916 0
-0.939343 -0.048341 0
-0.939345 -0.0483411 0
-0.975525 -0.0244719 0
-0.939343 -0.048341 0
-0.951051 -9.86379e-08 0
-0.975525 -0.0244719 0
-0.987684 -2.46418e-07 0
-0.939345 -0.0483411 0
-0.975525 -0.0244719 0
-0.951057 -3.78437e-17 0
-0.987688 -1.91577e-17 0
-0.975525 -0.0244719 0
-0.987684 -2.46418e-07 0
-0.987688 -1.91577e-17 0
-1 -3.46914e-32 0
-0.951051 -9.86379e-08 0