# vtk DataFile Version 3.0
#This file was generated by the deal.II library on 2026/6/8 at 18:29:00
ASCII
DATASET UNSTRUCTURED_GRID

POINTS 100 double
0 0 0
0.2 0 0
0 0.2 0
0.2 0.2 0
0 0.2 0
0.2 0.2 0
0 0.4 0
0.2 0.4 0
0 0.4 0
0.2 0.4 0
0 0.6 0
0.2 0.6 0
0 0.6 0
0.2 0.6 0
0 0.8 0
0.2 0.8 0
0 0.8 0
0.2 0.8 0
0 1 0
0.2 1 0
0.2 0 0
0.4 0 0
0.2 0.2 0
0.4 0.2 0
0.2 0.2 0
0.4 0.2 0
0.2 0.4 0
0.4 0.4 0
0.2 0.4 0
0.4 0.4 0
0.2 0.6 0
0.4 0.6 0
0.2 0.6 0
0.4 0.6 0
0.2 0.8 0
0.4 0.8 0
0.2 0.8 0
0.4 0.8 0
0.2 1 0
0.4 1 0
0.4 0 0
0.6 0 0
0.4 0.2 0
0.6 0.2 0
0.4 0.2 0
0.6 0.2 0
0.4 0.4 0
0.6 0.4 0
0.4 0.4 0
0.6 0.4 0
0.4 0.6 0
0.6 0.6 0
0.4 0.6 0
0.6 0.6 0
0.4 0.8 0
0.6 0.8 0
0.4 0.8 0
0.6 0.8 0
0.4 1 0
0.6 1 0
0.6 0 0
0.8 0 0
0.6 0.2 0
0.8 0.2 0
0.6 0.2 0
0.8 0.2 0
0.6 0.4 0
0.8 0.4 0
0.6 0.4 0
0.8 0.4 0
0.6 0.6 0
0.8 0.6 0
0.6 0.6 0
0.8 0.6 0
0.6 0.8 0
0.8 0.8 0
0.6 0.8 0
0.8 0.8 0
0.6 1 0
0.8 1 0
0.8 0 0
1 0 0
0.8 0.2 0
1 0.2 0
0.8 0.2 0
1 0.2 0
0.8 0.4 0
1 0.4 0
0.8 0.4 0
1 0.4 0
0.8 0.6 0
1 0.6 0
0.8 0.6 0
1 0.6 0
0.8 0.8 0
1 0.8 0
0.8 0.8 0
1 0.8 0
0.8 1 0
1 1 0

CELLS 25 125
4	0	1	3	2
4	4	5	7	6
4	8	9	11	10
4	12	13	15	14
4	16	17	19	18
4	20	21	23	22
4	24	25	27	26
4	28	29	31	30
4	32	33	35	34
4	36	37	39	38
4	40	41	43	42
4	44	45	47	46
4	48	49	51	50
4	52	53	55	54
4	56	57	59	58
4	60	61	63	62
4	64	65	67	66
4	68	69	71	70
4	72	73	75	74
4	76	77	79	78
4	80	81	83	82
4	84	85	87	86
4	88	89	91	90
4	92	93	95	94
4	96	97	99	98

CELL_TYPES 25
 9 9 9 9 9 9 9 9 9 9 9 9 9 9 9 9 9 9 9 9 9 9 9 9 9
POINT_DATA 100
VECTORS velocity double
0 0 0
0.587785 0 0
0 -0.587785 0
0.47585 -0.476408 0
0 -0.587785 0
0.47585 -0.476408 0
0 -0.951057 0
0.180157 -0.76493 0
0 -0.951057 0
0.180157 -0.76493 0
0 -0.951057 0
-0.181175 -0.764626 0
0 -0.951057 0
-0.181175 -0.764626 0
0 -0.587785 0
-0.47653 -0.475897 0
0 -0.587785 0
-0.47653 -0.475897 0
0 -1.22465e-16 0
-0.587785 -9.9076e-17 0
0.587785 0 0
0.951057 0 0
0.47585 -0.476408 0
0.764992 -0.181273 0
0.47585 -0.476408 0
0.764992 -0.181273 0
0.180157 -0.76493 0
0.292406 -0.292703 0
0.180157 -0.76493 0
0.292406 -0.292703 0
-0.181175 -0.764626 0
-0.292272 -0.292221 0
-0.181175 -0.764626 0
-0.292272 -0.292221 0
-0.47653 -0.475897 0
-0.764633 -0.180213 0
-0.47653 -0.475897 0
-0.764633 -0.180213 0
-0.587785 -9.9076e-17 0
-0.951057 -3.78437e-17 0
0.951057 0 0
0.951057 0 0
0.764992 -0.181273 0
0.76511 0.179973 0
0.764992 -0.181273 0
0.76511 0.179973 0
0.292406 -0.292703 0
0.292707 0.291926 0
0.292406 -0.292703 0
0.292707 0.291926 0
-0.292272 -0.292221 0
-0.291741 0.292277 0
-0.292272 -0.292221 0
-0.291741 0.292277 0
-0.764633 -0.180213 0
-0.764329 0.180999 0
-0.764633 -0.180213 0
-0.764329 0.180999 0
-0.951057 -3.78437e-17 0
-0.951057 3.78437e-17 0
0.951057 0 0
0.587785 0 0
0.76511 0.179973 0
0.475764 0.47519 0
0.76511 0.179973 0
0.475764 0.47519 0
0.292707 0.291926 0
0.181096 0.764695 0
0.292707 0.291926 0
0.181096 0.764695 0
-0.291741 0.292277 0
-0.180028 0.764812 0
-0.291741 0.292277 0
-0.180028 0.764812 0
-0.764329 0.180999 0
-0.475237 0.475885 0
-0.764329 0.180999 0
-0.475237 0.475885 0
-0.951057 3.78437e-17 0
-0.587785 9.9076e-17 0
0.587785 0 0
1.22465e-16 0 0
0.475764 0.47519 0
9.9076e-17 0.587785 0
0.475764 0.47519 0
9.9076e-17 0.587785 0
0.181096 0.764695 0
3.78437e-17 0.951057 0
0.181096 0.764695 0
3.78437e-17 0.951057 0
-0.180028 0.764812 0
-3.78437e-17 0.951057 0
-0.180028 0.764812 0
-3.78437e-17 0.951057 0
-0.475237 0.475885 0
-9.9076e-17 0.587785 0
-0.475237 0.475885 0
-9.9076e-17 0.587785 0
-0.587785 9.9076e-17 0
-1.22465e-16 1.22465e-16 0
VECTORS velocity_error double
0 0 0
0 0 0
0 0 0
-0.000322055 0.000880185 0
0 0 0
-0.000322055 0.000880185 0
0 0 0
0.0014785 -0.00449063 0
0 0 0
0.0014785 -0.00449063 0
0 0 0
-0.000460234 -0.00479447 0
0 0 0
-0.000460234 -0.00479447 0
0 0 0
0.00100168 0.000368818 0
0 0 0
0.00100168 0.000368818 0
0 0 0
0 0 0
0 0 0
0 0 0
-0.000322055 0.000880185 0
0.00442871 -0.000363081 0
-0.000322055 0.000880185 0
0.00442871 -0.000363081 0
0.0014785 -0.00449063 0
0.00148696 -0.00118996 0
0.0014785 -0.00449063 0
0.00148696 -0.00118996 0
-0.000460234 -0.00479447 0
-0.00162041 -0.00167149 0
-0.000460234 -0.00479447 0
-0.00162041 -0.00167149 0
0.00100168 0.000368818 0
-0.00478821 -0.00142296 0
0.00100168 0.000368818 0
-0.00478821 -0.00142296 0
0 0 0
0 0 0
0 0 0
0 0 0
0.00442871 -0.000363081 0
0.00431116 0.00166291 0
0.00442871 -0.000363081 0
0.00431116 0.00166291 0
0.00148696 -0.00118996 0
0.00118532 0.00196696 0
0.00148696 -0.00118996 0
0.00118532 0.00196696 0
-0.00162041 -0.00167149 0
-0.00215185 0.00161607 0
-0.00162041 -0.00167149 0
-0.00215185 0.00161607 0
-0.00478821 -0.00142296 0
-0.0050917 0.00063647 0
-0.00478821 -0.00142296 0
-0.0050917 0.00063647 0
0 0 0
0 0 0
0 0 0
0 0 0
0.00431116 0.00166291 0
-0.000235559 0.000338221 0
0.00431116 0.00166291 0
-0.000235559 0.000338221 0
0.00118532 0.00196696 0
0.000539274 0.00472579 0
0.00118532 0.00196696 0
0.000539274 0.00472579 0
-0.00215185 0.00161607 0
-0.00160741 0.00460894 0
-0.00215185 0.00161607 0
-0.00160741 0.00460894 0
-0.0050917 0.00063647 0
-0.000291294 -0.000357157 0
-0.0050917 0.00063647 0
-0.000291294 -0.000357157 0
0 0 0
0 0 0
0 0 0
0 0 0
-0.000235559 0.000338221 0
0 0 0
-0.000235559 0.000338221 0
0 0 0
0.000539274 0.00472579 0
0 0 0
0.000539274 0.00472579 0
0 0 0
-0.00160741 0.00460894 0
0 0 0
-0.00160741 0.00460894 0
0 0 0
-0.000291294 -0.000357157 0
0 0 0
-0.000291294 -0.000357157 0
0 0 0
0 0 0
0 0 0
SCALARS pressure double 1
LOOKUP_TABLE default
-0.00299201 -0.00294688 0.587836 0.474832 0.587836 0.474832 0.952613 0.771512 0.952613 0.771512 0.952718 0.771573 0.952718 0.771573 0.587843 0.474899 0.587843 0.474899 -0.00292032 -0.00274563 -0.00294688 -0.00120787 0.474832 0.182357 0.474832 0.182357 0.771512 0.295921 0.771512 0.295921 0.771573 0.295941 0.771573 0.295941 0.474899 0.182435 0.474899 0.182435 -0.00274563 -0.00118053 -0.00120787 0.000300576 0.182357 -0.181433 0.182357 -0.181433 0.295921 -0.293064 0.295921 -0.293064 0.295941 -0.293044 0.295941 -0.293044 0.182435 -0.181334 0.182435 -0.181334 -0.00118053 0.000354465 0.000300576 0.0014707 -0.181433 -0.477588 -0.181433 -0.477588 -0.293064 -0.77055 -0.293064 -0.77055 -0.293044 -0.770509 -0.293044 -0.770509 -0.181334 -0.477522 -0.181334 -0.477522 0.000354465 0.00144892 0.0014707 0.00358376 -0.477588 -0.589342 -0.477588 -0.589342 -0.77055 -0.953571 -0.77055 -0.953571 -0.770509 -0.953493 -0.770509 -0.953493 -0.477522 -0.589111 -0.477522 -0.589111 0.00144892 0.00365537 
SCALARS pressure_error double 1
LOOKUP_TABLE default
0.00299206 0.00294692 -5.08762e-05 0.000696137 -5.08762e-05 0.000696137 -0.001556 -0.0020909 -0.001556 -0.0020909 -0.00166157 -0.00215159 -0.00166157 -0.00215159 -5.82067e-05 0.000629397 -5.82067e-05 0.000629397 0.00292037 0.00274568 0.00294692 0.00120792 0.000696137 -0.000720962 0.000696137 -0.000720962 -0.0020909 -0.00202837 -0.0020909 -0.00202837 -0.00215159 -0.00204803 -0.00215159 -0.00204803 0.000629397 -0.000799526 0.000629397 -0.000799526 0.00274568 0.00118058 0.00120792 -0.00030053 -0.000720962 -0.00020281 -0.000720962 -0.00020281 -0.00202837 -0.000828462 -0.00202837 -0.000828462 -0.00204803 -0.000848132 -0.00204803 -0.000848132 -0.000799526 -0.000301116 -0.000799526 -0.000301116 0.00118058 -0.000354419 -0.00030053 -0.00147065 -0.00020281 0.00206025 -0.00020281 0.00206025 -0.000828462 0.00112955 -0.000828462 0.00112955 -0.000848132 0.00108852 -0.000848132 0.00108852 -0.000301116 0.00199343 -0.000301116 0.00199343 -0.000354419 -0.00144887 -0.00147065 -0.00358372 0.00206025 0.00155637 0.00206025 0.00155637 0.00112955 0.00251505 0.00112955 0.00251505 0.00108852 0.00243612 0.00108852 0.00243612 0.00199343 0.0013258 0.00199343 0.0013258 -0.00144887 -0.00365532 
SCALARS temperature double 1
LOOKUP_TABLE default
0 0 0 0 0 0 0 0 0 0 0 0 0 0 0 0 0 0 0 0 0 0 0 0 0 0 0 0 0 0 0 0 0 0 0 0 0 0 0 0 0 0 0 0 0 0 0 0 0 0 0 0 0 0 0 0 0 0 0 0 0 0 0 0 0 0 0 0 0 0 0 0 0 0 0 0 0 0 0 0 0 0 0 0 0 0 0 0 0 0 0 0 0 0 0 0 0 0 0 0 
SCALARS temperature_error double 1
LOOKUP_TABLE default
0 0 0.587785 0.181636 0.587785 0.181636 0.951057 0.293893 0.951057 0.293893 0.951057 0.293893 0.951057 0.293893 0.587785 0.181636 0.587785 0.181636 1.22465e-16 3.78437e-17 0 0 0.181636 -0.475528 0.181636 -0.475528 0.293893 -0.769421 0.293893 -0.769421 0.293893 -0.769421 0.293893 -0.769421 0.181636 -0.475528 0.181636 -0.475528 3.78437e-17 -9.9076e-17 0 0 -0.475528 -0.475528 -0.475528 -0.475528 -0.769421 -0.769421 -0.769421 -0.769421 -0.769421 -0.769421 -0.769421 -0.769421 -0.475528 -0.475528 -0.475528 -0.475528 -9.9076e-17 -9.9076e-17 0 0 -0.475528 0.181636 -0.475528 0.181636 -0.769421 0.293893 -0.769421 0.293893 -0.769421 0.293893 -0.769421 0.293893 -0.475528 0.181636 -0.475528 0.181636 -9.9076e-17 3.78437e-17 0 0 0.181636 0.587785 0.181636 0.587785 0.293893 0.951057 0.293893 0.951057 0.293893 0.951057 0.293893 0.951057 0.181636 0.587785 0.181636 0.587785 3.78437e-17 1.22465e-16 
