# vtk DataFile Version 3.0
#This file was generated by the deal.II library on 2026/5/29 at 10:36:23
ASCII
DATASET UNSTRUCTURED_GRID

POINTS 1600 double
0 0 0
0.05 0 0
0 0.05 0
0.05 0.05 0
0.05 0 0
0.1 0 0
0.05 0.05 0
0.1 0.05 0
0 0.05 0
0.05 0.05 0
0 0.1 0
0.05 0.1 0
0.05 0.05 0
0.1 0.05 0
0.05 0.1 0
0.1 0.1 0
0.1 0 0
0.15 0 0
0.1 0.05 0
0.15 0.05 0
0.15 0 0
0.2 0 0
0.15 0.05 0
0.2 0.05 0
0.1 0.05 0
0.15 0.05 0
0.1 0.1 0
0.15 0.1 0
0.15 0.05 0
0.2 0.05 0
0.15 0.1 0
0.2 0.1 0
0 0.1 0
0.05 0.1 0
0 0.15 0
0.05 0.15 0
0.05 0.1 0
0.1 0.1 0
0.05 0.15 0
0.1 0.15 0
0 0.15 0
0.05 0.15 0
0 0.2 0
0.05 0.2 0
0.05 0.15 0
0.1 0.15 0
0.05 0.2 0
0.1 0.2 0
0.1 0.1 0
0.15 0.1 0
0.1 0.15 0
0.15 0.15 0
0.15 0.1 0
0.2 0.1 0
0.15 0.15 0
0.2 0.15 0
0.1 0.15 0
0.15 0.15 0
0.1 0.2 0
0.15 0.2 0
0.15 0.15 0
0.2 0.15 0
0.15 0.2 0
0.2 0.2 0
0 0.2 0
0.05 0.2 0
0 0.25 0
0.05 0.25 0
0.05 0.2 0
0.1 0.2 0
0.05 0.25 0
0.1 0.25 0
0 0.25 0
0.05 0.25 0
0 0.3 0
0.05 0.3 0
0.05 0.25 0
0.1 0.25 0
0.05 0.3 0
0.1 0.3 0
0.1 0.2 0
0.15 0.2 0
0.1 0.25 0
0.15 0.25 0
0.15 0.2 0
0.2 0.2 0
0.15 0.25 0
0.2 0.25 0
0.1 0.25 0
0.15 0.25 0
0.1 0.3 0
0.15 0.3 0
0.15 0.25 0
0.2 0.25 0
0.15 0.3 0
0.2 0.3 0
0 0.3 0
0.05 0.3 0
0 0.35 0
0.05 0.35 0
0.05 0.3 0
0.1 0.3 0
0.05 0.35 0
0.1 0.35 0
0 0.35 0
0.05 0.35 0
0 0.4 0
0.05 0.4 0
0.05 0.35 0
0.1 0.35 0
0.05 0.4 0
0.1 0.4 0
0.1 0.3 0
0.15 0.3 0
0.1 0.35 0
0.15 0.35 0
0.15 0.3 0
0.2 0.3 0
0.15 0.35 0
0.2 0.35 0
0.1 0.35 0
0.15 0.35 0
0.1 0.4 0
0.15 0.4 0
0.15 0.35 0
0.2 0.35 0
0.15 0.4 0
0.2 0.4 0
0 0.4 0
0.05 0.4 0
0 0.45 0
0.05 0.45 0
0.05 0.4 0
0.1 0.4 0
0.05 0.45 0
0.1 0.45 0
0 0.45 0
0.05 0.45 0
0 0.5 0
0.05 0.5 0
0.05 0.45 0
0.1 0.45 0
0.05 0.5 0
0.1 0.5 0
0.1 0.4 0
0.15 0.4 0
0.1 0.45 0
0.15 0.45 0
0.15 0.4 0
0.2 0.4 0
0.15 0.45 0
0.2 0.45 0
0.1 0.45 0
0.15 0.45 0
0.1 0.5 0
0.15 0.5 0
0.15 0.45 0
0.2 0.45 0
0.15 0.5 0
0.2 0.5 0
0 0.5 0
0.05 0.5 0
0 0.55 0
0.05 0.55 0
0.05 0.5 0
0.1 0.5 0
0.05 0.55 0
0.1 0.55 0
0 0.55 0
0.05 0.55 0
0 0.6 0
0.05 0.6 0
0.05 0.55 0
0.1 0.55 0
0.05 0.6 0
0.1 0.6 0
0.1 0.5 0
0.15 0.5 0
0.1 0.55 0
0.15 0.55 0
0.15 0.5 0
0.2 0.5 0
0.15 0.55 0
0.2 0.55 0
0.1 0.55 0
0.15 0.55 0
0.1 0.6 0
0.15 0.6 0
0.15 0.55 0
0.2 0.55 0
0.15 0.6 0
0.2 0.6 0
0 0.6 0
0.05 0.6 0
0 0.65 0
0.05 0.65 0
0.05 0.6 0
0.1 0.6 0
0.05 0.65 0
0.1 0.65 0
0 0.65 0
0.05 0.65 0
0 0.7 0
0.05 0.7 0
0.05 0.65 0
0.1 0.65 0
0.05 0.7 0
0.1 0.7 0
0.1 0.6 0
0.15 0.6 0
0.1 0.65 0
0.15 0.65 0
0.15 0.6 0
0.2 0.6 0
0.15 0.65 0
0.2 0.65 0
0.1 0.65 0
0.15 0.65 0
0.1 0.7 0
0.15 0.7 0
0.15 0.65 0
0.2 0.65 0
0.15 0.7 0
0.2 0.7 0
0 0.7 0
0.05 0.7 0
0 0.75 0
0.05 0.75 0
0.05 0.7 0
0.1 0.7 0
0.05 0.75 0
0.1 0.75 0
0 0.75 0
0.05 0.75 0
0 0.8 0
0.05 0.8 0
0.05 0.75 0
0.1 0.75 0
0.05 0.8 0
0.1 0.8 0
0.1 0.7 0
0.15 0.7 0
0.1 0.75 0
0.15 0.75 0
0.15 0.7 0
0.2 0.7 0
0.15 0.75 0
0.2 0.75 0
0.1 0.75 0
0.15 0.75 0
0.1 0.8 0
0.15 0.8 0
0.15 0.75 0
0.2 0.75 0
0.15 0.8 0
0.2 0.8 0
0 0.8 0
0.05 0.8 0
0 0.85 0
0.05 0.85 0
0.05 0.8 0
0.1 0.8 0
0.05 0.85 0
0.1 0.85 0
0 0.85 0
0.05 0.85 0
0 0.9 0
0.05 0.9 0
0.05 0.85 0
0.1 0.85 0
0.05 0.9 0
0.1 0.9 0
0.1 0.8 0
0.15 0.8 0
0.1 0.85 0
0.15 0.85 0
0.15 0.8 0
0.2 0.8 0
0.15 0.85 0
0.2 0.85 0
0.1 0.85 0
0.15 0.85 0
0.1 0.9 0
0.15 0.9 0
0.15 0.85 0
0.2 0.85 0
0.15 0.9 0
0.2 0.9 0
0 0.9 0
0.05 0.9 0
0 0.95 0
0.05 0.95 0
0.05 0.9 0
0.1 0.9 0
0.05 0.95 0
0.1 0.95 0
0 0.95 0
0.05 0.95 0
0 1 0
0.05 1 0
0.05 0.95 0
0.1 0.95 0
0.05 1 0
0.1 1 0
0.1 0.9 0
0.15 0.9 0
0.1 0.95 0
0.15 0.95 0
0.15 0.9 0
0.2 0.9 0
0.15 0.95 0
0.2 0.95 0
0.1 0.95 0
0.15 0.95 0
0.1 1 0
0.15 1 0
0.15 0.95 0
0.2 0.95 0
0.15 1 0
0.2 1 0
0.2 0 0
0.25 0 0
0.2 0.05 0
0.25 0.05 0
0.25 0 0
0.3 0 0
0.25 0.05 0
0.3 0.05 0
0.2 0.05 0
0.25 0.05 0
0.2 0.1 0
0.25 0.1 0
0.25 0.05 0
0.3 0.05 0
0.25 0.1 0
0.3 0.1 0
0.3 0 0
0.35 0 0
0.3 0.05 0
0.35 0.05 0
0.35 0 0
0.4 0 0
0.35 0.05 0
0.4 0.05 0
0.3 0.05 0
0.35 0.05 0
0.3 0.1 0
0.35 0.1 0
0.35 0.05 0
0.4 0.05 0
0.35 0.1 0
0.4 0.1 0
0.2 0.1 0
0.25 0.1 0
0.2 0.15 0
0.25 0.15 0
0.25 0.1 0
0.3 0.1 0
0.25 0.15 0
0.3 0.15 0
0.2 0.15 0
0.25 0.15 0
0.2 0.2 0
0.25 0.2 0
0.25 0.15 0
0.3 0.15 0
0.25 0.2 0
0.3 0.2 0
0.3 0.1 0
0.35 0.1 0
0.3 0.15 0
0.35 0.15 0
0.35 0.1 0
0.4 0.1 0
0.35 0.15 0
0.4 0.15 0
0.3 0.15 0
0.35 0.15 0
0.3 0.2 0
0.35 0.2 0
0.35 0.15 0
0.4 0.15 0
0.35 0.2 0
0.4 0.2 0
0.2 0.2 0
0.25 0.2 0
0.2 0.25 0
0.25 0.25 0
0.25 0.2 0
0.3 0.2 0
0.25 0.25 0
0.3 0.25 0
0.2 0.25 0
0.25 0.25 0
0.2 0.3 0
0.25 0.3 0
0.25 0.25 0
0.3 0.25 0
0.25 0.3 0
0.3 0.3 0
0.3 0.2 0
0.35 0.2 0
0.3 0.25 0
0.35 0.25 0
0.35 0.2 0
0.4 0.2 0
0.35 0.25 0
0.4 0.25 0
0.3 0.25 0
0.35 0.25 0
0.3 0.3 0
0.35 0.3 0
0.35 0.25 0
0.4 0.25 0
0.35 0.3 0
0.4 0.3 0
0.2 0.3 0
0.25 0.3 0
0.2 0.35 0
0.25 0.35 0
0.25 0.3 0
0.3 0.3 0
0.25 0.35 0
0.3 0.35 0
0.2 0.35 0
0.25 0.35 0
0.2 0.4 0
0.25 0.4 0
0.25 0.35 0
0.3 0.35 0
0.25 0.4 0
0.3 0.4 0
0.3 0.3 0
0.35 0.3 0
0.3 0.35 0
0.35 0.35 0
0.35 0.3 0
0.4 0.3 0
0.35 0.35 0
0.4 0.35 0
0.3 0.35 0
0.35 0.35 0
0.3 0.4 0
0.35 0.4 0
0.35 0.35 0
0.4 0.35 0
0.35 0.4 0
0.4 0.4 0
0.2 0.4 0
0.25 0.4 0
0.2 0.45 0
0.25 0.45 0
0.25 0.4 0
0.3 0.4 0
0.25 0.45 0
0.3 0.45 0
0.2 0.45 0
0.25 0.45 0
0.2 0.5 0
0.25 0.5 0
0.25 0.45 0
0.3 0.45 0
0.25 0.5 0
0.3 0.5 0
0.3 0.4 0
0.35 0.4 0
0.3 0.45 0
0.35 0.45 0
0.35 0.4 0
0.4 0.4 0
0.35 0.45 0
0.4 0.45 0
0.3 0.45 0
0.35 0.45 0
0.3 0.5 0
0.35 0.5 0
0.35 0.45 0
0.4 0.45 0
0.35 0.5 0
0.4 0.5 0
0.2 0.5 0
0.25 0.5 0
0.2 0.55 0
0.25 0.55 0
0.25 0.5 0
0.3 0.5 0
0.25 0.55 0
0.3 0.55 0
0.2 0.55 0
0.25 0.55 0
0.2 0.6 0
0.25 0.6 0
0.25 0.55 0
0.3 0.55 0
0.25 0.6 0
0.3 0.6 0
0.3 0.5 0
0.35 0.5 0
0.3 0.55 0
0.35 0.55 0
0.35 0.5 0
0.4 0.5 0
0.35 0.55 0
0.4 0.55 0
0.3 0.55 0
0.35 0.55 0
0.3 0.6 0
0.35 0.6 0
0.35 0.55 0
0.4 0.55 0
0.35 0.6 0
0.4 0.6 0
0.2 0.6 0
0.25 0.6 0
0.2 0.65 0
0.25 0.65 0
0.25 0.6 0
0.3 0.6 0
0.25 0.65 0
0.3 0.65 0
0.2 0.65 0
0.25 0.65 0
0.2 0.7 0
0.25 0.7 0
0.25 0.65 0
0.3 0.65 0
0.25 0.7 0
0.3 0.7 0
0.3 0.6 0
0.35 0.6 0
0.3 0.65 0
0.35 0.65 0
0.35 0.6 0
0.4 0.6 0
0.35 0.65 0
0.4 0.65 0
0.3 0.65 0
0.35 0.65 0
0.3 0.7 0
0.35 0.7 0
0.35 0.65 0
0.4 0.65 0
0.35 0.7 0
0.4 0.7 0
0.2 0.7 0
0.25 0.7 0
0.2 0.75 0
0.25 0.75 0
0.25 0.7 0
0.3 0.7 0
0.25 0.75 0
0.3 0.75 0
0.2 0.75 0
0.25 0.75 0
0.2 0.8 0
0.25 0.8 0
0.25 0.75 0
0.3 0.75 0
0.25 0.8 0
0.3 0.8 0
0.3 0.7 0
0.35 0.7 0
0.3 0.75 0
0.35 0.75 0
0.35 0.7 0
0.4 0.7 0
0.35 0.75 0
0.4 0.75 0
0.3 0.75 0
0.35 0.75 0
0.3 0.8 0
0.35 0.8 0
0.35 0.75 0
0.4 0.75 0
0.35 0.8 0
0.4 0.8 0
0.2 0.8 0
0.25 0.8 0
0.2 0.85 0
0.25 0.85 0
0.25 0.8 0
0.3 0.8 0
0.25 0.85 0
0.3 0.85 0
0.2 0.85 0
0.25 0.85 0
0.2 0.9 0
0.25 0.9 0
0.25 0.85 0
0.3 0.85 0
0.25 0.9 0
0.3 0.9 0
0.3 0.8 0
0.35 0.8 0
0.3 0.85 0
0.35 0.85 0
0.35 0.8 0
0.4 0.8 0
0.35 0.85 0
0.4 0.85 0
0.3 0.85 0
0.35 0.85 0
0.3 0.9 0
0.35 0.9 0
0.35 0.85 0
0.4 0.85 0
0.35 0.9 0
0.4 0.9 0
0.2 0.9 0
0.25 0.9 0
0.2 0.95 0
0.25 0.95 0
0.25 0.9 0
0.3 0.9 0
0.25 0.95 0
0.3 0.95 0
0.2 0.95 0
0.25 0.95 0
0.2 1 0
0.25 1 0
0.25 0.95 0
0.3 0.95 0
0.25 1 0
0.3 1 0
0.3 0.9 0
0.35 0.9 0
0.3 0.95 0
0.35 0.95 0
0.35 0.9 0
0.4 0.9 0
0.35 0.95 0
0.4 0.95 0
0.3 0.95 0
0.35 0.95 0
0.3 1 0
0.35 1 0
0.35 0.95 0
0.4 0.95 0
0.35 1 0
0.4 1 0
0.4 0 0
0.45 0 0
0.4 0.05 0
0.45 0.05 0
0.45 0 0
0.5 0 0
0.45 0.05 0
0.5 0.05 0
0.4 0.05 0
0.45 0.05 0
0.4 0.1 0
0.45 0.1 0
0.45 0.05 0
0.5 0.05 0
0.45 0.1 0
0.5 0.1 0
0.5 0 0
0.55 0 0
0.5 0.05 0
0.55 0.05 0
0.55 0 0
0.6 0 0
0.55 0.05 0
0.6 0.05 0
0.5 0.05 0
0.55 0.05 0
0.5 0.1 0
0.55 0.1 0
0.55 0.05 0
0.6 0.05 0
0.55 0.1 0
0.6 0.1 0
0.4 0.1 0
0.45 0.1 0
0.4 0.15 0
0.45 0.15 0
0.45 0.1 0
0.5 0.1 0
0.45 0.15 0
0.5 0.15 0
0.4 0.15 0
0.45 0.15 0
0.4 0.2 0
0.45 0.2 0
0.45 0.15 0
0.5 0.15 0
0.45 0.2 0
0.5 0.2 0
0.5 0.1 0
0.55 0.1 0
0.5 0.15 0
0.55 0.15 0
0.55 0.1 0
0.6 0.1 0
0.55 0.15 0
0.6 0.15 0
0.5 0.15 0
0.55 0.15 0
0.5 0.2 0
0.55 0.2 0
0.55 0.15 0
0.6 0.15 0
0.55 0.2 0
0.6 0.2 0
0.4 0.2 0
0.45 0.2 0
0.4 0.25 0
0.45 0.25 0
0.45 0.2 0
0.5 0.2 0
0.45 0.25 0
0.5 0.25 0
0.4 0.25 0
0.45 0.25 0
0.4 0.3 0
0.45 0.3 0
0.45 0.25 0
0.5 0.25 0
0.45 0.3 0
0.5 0.3 0
0.5 0.2 0
0.55 0.2 0
0.5 0.25 0
0.55 0.25 0
0.55 0.2 0
0.6 0.2 0
0.55 0.25 0
0.6 0.25 0
0.5 0.25 0
0.55 0.25 0
0.5 0.3 0
0.55 0.3 0
0.55 0.25 0
0.6 0.25 0
0.55 0.3 0
0.6 0.3 0
0.4 0.3 0
0.45 0.3 0
0.4 0.35 0
0.45 0.35 0
0.45 0.3 0
0.5 0.3 0
0.45 0.35 0
0.5 0.35 0
0.4 0.35 0
0.45 0.35 0
0.4 0.4 0
0.45 0.4 0
0.45 0.35 0
0.5 0.35 0
0.45 0.4 0
0.5 0.4 0
0.5 0.3 0
0.55 0.3 0
0.5 0.35 0
0.55 0.35 0
0.55 0.3 0
0.6 0.3 0
0.55 0.35 0
0.6 0.35 0
0.5 0.35 0
0.55 0.35 0
0.5 0.4 0
0.55 0.4 0
0.55 0.35 0
0.6 0.35 0
0.55 0.4 0
0.6 0.4 0
0.4 0.4 0
0.45 0.4 0
0.4 0.45 0
0.45 0.45 0
0.45 0.4 0
0.5 0.4 0
0.45 0.45 0
0.5 0.45 0
0.4 0.45 0
0.45 0.45 0
0.4 0.5 0
0.45 0.5 0
0.45 0.45 0
0.5 0.45 0
0.45 0.5 0
0.5 0.5 0
0.5 0.4 0
0.55 0.4 0
0.5 0.45 0
0.55 0.45 0
0.55 0.4 0
0.6 0.4 0
0.55 0.45 0
0.6 0.45 0
0.5 0.45 0
0.55 0.45 0
0.5 0.5 0
0.55 0.5 0
0.55 0.45 0
0.6 0.45 0
0.55 0.5 0
0.6 0.5 0
0.4 0.5 0
0.45 0.5 0
0.4 0.55 0
0.45 0.55 0
0.45 0.5 0
0.5 0.5 0
0.45 0.55 0
0.5 0.55 0
0.4 0.55 0
0.45 0.55 0
0.4 0.6 0
0.45 0.6 0
0.45 0.55 0
0.5 0.55 0
0.45 0.6 0
0.5 0.6 0
0.5 0.5 0
0.55 0.5 0
0.5 0.55 0
0.55 0.55 0
0.55 0.5 0
0.6 0.5 0
0.55 0.55 0
0.6 0.55 0
0.5 0.55 0
0.55 0.55 0
0.5 0.6 0
0.55 0.6 0
0.55 0.55 0
0.6 0.55 0
0.55 0.6 0
0.6 0.6 0
0.4 0.6 0
0.45 0.6 0
0.4 0.65 0
0.45 0.65 0
0.45 0.6 0
0.5 0.6 0
0.45 0.65 0
0.5 0.65 0
0.4 0.65 0
0.45 0.65 0
0.4 0.7 0
0.45 0.7 0
0.45 0.65 0
0.5 0.65 0
0.45 0.7 0
0.5 0.7 0
0.5 0.6 0
0.55 0.6 0
0.5 0.65 0
0.55 0.65 0
0.55 0.6 0
0.6 0.6 0
0.55 0.65 0
0.6 0.65 0
0.5 0.65 0
0.55 0.65 0
0.5 0.7 0
0.55 0.7 0
0.55 0.65 0
0.6 0.65 0
0.55 0.7 0
0.6 0.7 0
0.4 0.7 0
0.45 0.7 0
0.4 0.75 0
0.45 0.75 0
0.45 0.7 0
0.5 0.7 0
0.45 0.75 0
0.5 0.75 0
0.4 0.75 0
0.45 0.75 0
0.4 0.8 0
0.45 0.8 0
0.45 0.75 0
0.5 0.75 0
0.45 0.8 0
0.5 0.8 0
0.5 0.7 0
0.55 0.7 0
0.5 0.75 0
0.55 0.75 0
0.55 0.7 0
0.6 0.7 0
0.55 0.75 0
0.6 0.75 0
0.5 0.75 0
0.55 0.75 0
0.5 0.8 0
0.55 0.8 0
0.55 0.75 0
0.6 0.75 0
0.55 0.8 0
0.6 0.8 0
0.4 0.8 0
0.45 0.8 0
0.4 0.85 0
0.45 0.85 0
0.45 0.8 0
0.5 0.8 0
0.45 0.85 0
0.5 0.85 0
0.4 0.85 0
0.45 0.85 0
0.4 0.9 0
0.45 0.9 0
0.45 0.85 0
[...]
POINT_DATA 1600
VECTORS velocity double
0 0 0
0.156434 0 0
0 -0.156434 0
0.1545 -0.15452 0
0.156434 0 0
0.309017 0 0
0.1545 -0.15452 0
0.305202 -0.148792 0
0 -0.156434 0
0.1545 -0.15452 0
0 -0.309017 0
0.148774 -0.305226 0
0.1545 -0.15452 0
0.305202 -0.148792 0
0.148774 -0.305226 0
0.293887 -0.293913 0
0.309017 0 0
0.45399 0 0
0.305202 -0.148792 0
0.448392 -0.139399 0
0.45399 0 0
0.587785 0 0
0.448392 -0.139399 0
0.580543 -0.126572 0
0.305202 -0.148792 0
0.448392 -0.139399 0
0.293887 -0.293913 0
0.431767 -0.275359 0
0.448392 -0.139399 0
0.580543 -0.126572 0
0.431767 -0.275359 0
0.559016 -0.250023 0
0 -0.309017 0
0.148774 -0.305226 0
0 -0.45399 0
0.139384 -0.448415 0
0.148774 -0.305226 0
0.293887 -0.293913 0
0.139384 -0.448415 0
0.275338 -0.431794 0
0 -0.45399 0
0.139384 -0.448415 0
0 -0.587785 0
0.126561 -0.580564 0
0.139384 -0.448415 0
0.275338 -0.431794 0
0.126561 -0.580564 0
0.250006 -0.559042 0
0.293887 -0.293913 0
0.431767 -0.275359 0
0.275338 -0.431794 0
0.404512 -0.404536 0
0.431767 -0.275359 0
0.559016 -0.250023 0
0.404512 -0.404536 0
0.523727 -0.367314 0
0.275338 -0.431794 0
0.404512 -0.404536 0
0.250006 -0.559042 0
0.367295 -0.52375 0
0.404512 -0.404536 0
0.523727 -0.367314 0
0.367295 -0.52375 0
0.47554 -0.475559 0
0 -0.587785 0
0.126561 -0.580564 0
0 -0.707107 0
0.11062 -0.698417 0
0.126561 -0.580564 0
0.250006 -0.559042 0
0.11062 -0.698417 0
0.218516 -0.672524 0
0 -0.707107 0
0.11062 -0.698417 0
0 -0.809017 0
0.0919547 -0.799073 0
0.11062 -0.698417 0
0.218516 -0.672524 0
0.0919547 -0.799073 0
0.181645 -0.769446 0
0.250006 -0.559042 0
0.367295 -0.52375 0
0.218516 -0.672524 0
0.321031 -0.630066 0
0.367295 -0.52375 0
0.47554 -0.475559 0
0.321031 -0.630066 0
0.415641 -0.572092 0
0.218516 -0.672524 0
0.321031 -0.630066 0
0.181645 -0.769446 0
0.266861 -0.720868 0
0.321031 -0.630066 0
0.415641 -0.572092 0
0.266861 -0.720868 0
0.345506 -0.654537 0
0 -0.809017 0
0.0919547 -0.799073 0
0 -0.891007 0
0.0710249 -0.880053 0
0.0919547 -0.799073 0
0.181645 -0.769446 0
0.0710249 -0.880053 0
0.1403 -0.847421 0
0 -0.891007 0
0.0710249 -0.880053 0
0 -0.951057 0
0.0483459 -0.939363 0
0.0710249 -0.880053 0
0.1403 -0.847421 0
0.0483459 -0.939363 0
0.0954997 -0.904529 0
0.181645 -0.769446 0
0.266861 -0.720868 0
0.1403 -0.847421 0
0.206119 -0.793918 0
0.266861 -0.720868 0
0.345506 -0.654537 0
0.206119 -0.793918 0
0.266863 -0.720866 0
0.1403 -0.847421 0
0.206119 -0.793918 0
0.0954997 -0.904529 0
0.140301 -0.84742 0
0.206119 -0.793918 0
0.266863 -0.720866 0
0.140301 -0.84742 0
0.181648 -0.769444 0
0 -0.951057 0
0.0483459 -0.939363 0
0 -0.987688 0
0.0244763 -0.975542 0
0.0483459 -0.939363 0
0.0954997 -0.904529 0
0.0244763 -0.975542 0
0.0483479 -0.939365 0
0 -0.987688 0
0.0244763 -0.975542 0
0 -1 0
3.99589e-06 -0.987699 0
0.0244763 -0.975542 0
0.0483479 -0.939365 0
3.99589e-06 -0.987699 0
5.52437e-06 -0.951069 0
0.0954997 -0.904529 0
0.140301 -0.84742 0
0.0483479 -0.939365 0
0.0710283 -0.880055 0
0.140301 -0.84742 0
0.181648 -0.769444 0
0.0710283 -0.880055 0
0.0919603 -0.799075 0
0.0483479 -0.939365 0
0.0710283 -0.880055 0
5.52437e-06 -0.951069 0
6.56623e-06 -0.89102 0
0.0710283 -0.880055 0
0.0919603 -0.799075 0
6.56623e-06 -0.89102 0
8.09548e-06 -0.80903 0
0 -1 0
3.99589e-06 -0.987699 0
0 -0.987688 0
-0.0244684 -0.975536 0
3.99589e-06 -0.987699 0
5.52437e-06 -0.951069 0
-0.0244684 -0.975536 0
-0.0483369 -0.939355 0
0 -0.987688 0
-0.0244684 -0.975536 0
0 -0.951057 0
-0.0483383 -0.93935 0
-0.0244684 -0.975536 0
-0.0483369 -0.939355 0
-0.0483383 -0.93935 0
-0.095489 -0.90451 0
5.52437e-06 -0.951069 0
6.56623e-06 -0.89102 0
-0.0483369 -0.939355 0
-0.0710153 -0.880045 0
6.56623e-06 -0.89102 0
8.09548e-06 -0.80903 0
-0.0710153 -0.880045 0
-0.0919443 -0.799065 0
-0.0483369 -0.939355 0
-0.0710153 -0.880045 0
-0.095489 -0.90451 0
-0.140288 -0.8474 0
-0.0710153 -0.880045 0
-0.0919443 -0.799065 0
-0.140288 -0.8474 0
-0.181633 -0.769424 0
0 -0.951057 0
-0.0483383 -0.93935 0
0 -0.891007 0
-0.071018 -0.880035 0
-0.0483383 -0.93935 0
-0.095489 -0.90451 0
-0.071018 -0.880035 0
-0.14029 -0.847393 0
0 -0.891007 0
-0.071018 -0.880035 0
0 -0.809017 0
-0.0919488 -0.79905 0
-0.071018 -0.880035 0
-0.14029 -0.847393 0
-0.0919488 -0.79905 0
-0.181636 -0.769411 0
-0.095489 -0.90451 0
-0.140288 -0.8474 0
-0.14029 -0.847393 0
-0.206107 -0.793889 0
-0.140288 -0.8474 0
-0.181633 -0.769424 0
-0.206107 -0.793889 0
-0.266848 -0.720837 0
-0.14029 -0.847393 0
-0.206107 -0.793889 0
-0.181636 -0.769411 0
-0.26685 -0.720831 0
-0.206107 -0.793889 0
-0.266848 -0.720837 0
-0.26685 -0.720831 0
-0.345493 -0.654502 0
0 -0.809017 0
-0.0919488 -0.79905 0
0 -0.707107 0
-0.110616 -0.698389 0
-0.0919488 -0.79905 0
-0.181636 -0.769411 0
-0.110616 -0.698389 0
-0.218509 -0.672484 0
0 -0.707107 0
-0.110616 -0.698389 0
0 -0.587785 0
-0.126559 -0.580533 0
-0.110616 -0.698389 0
-0.218509 -0.672484 0
-0.126559 -0.580533 0
-0.250002 -0.558998 0
-0.181636 -0.769411 0
-0.26685 -0.720831 0
-0.218509 -0.672484 0
-0.321022 -0.630024 0
-0.26685 -0.720831 0
-0.345493 -0.654502 0
-0.321022 -0.630024 0
-0.41563 -0.57205 0
-0.218509 -0.672484 0
-0.321022 -0.630024 0
-0.250002 -0.558998 0
-0.36729 -0.523704 0
-0.321022 -0.630024 0
-0.41563 -0.57205 0
-0.36729 -0.523704 0
-0.475533 -0.475514 0
0 -0.587785 0
-0.126559 -0.580533 0
0 -0.45399 0
-0.139386 -0.448382 0
-0.126559 -0.580533 0
-0.250002 -0.558998 0
-0.139386 -0.448382 0
-0.275339 -0.431749 0
0 -0.45399 0
-0.139386 -0.448382 0
0 -0.309017 0
-0.148781 -0.305193 0
-0.139386 -0.448382 0
-0.275339 -0.431749 0
-0.148781 -0.305193 0
-0.293896 -0.293872 0
-0.250002 -0.558998 0
-0.36729 -0.523704 0
-0.275339 -0.431749 0
-0.404512 -0.40449 0
-0.36729 -0.523704 0
-0.475533 -0.475514 0
-0.404512 -0.40449 0
-0.523725 -0.36727 0
-0.275339 -0.431749 0
-0.404512 -0.40449 0
-0.293896 -0.293872 0
-0.431774 -0.275318 0
-0.404512 -0.40449 0
-0.523725 -0.36727 0
-0.431774 -0.275318 0
-0.559021 -0.249984 0
0 -0.309017 0
-0.148781 -0.305193 0
0 -0.156434 0
-0.154513 -0.154494 0
-0.148781 -0.305193 0
-0.293896 -0.293872 0
-0.154513 -0.154494 0
-0.305216 -0.148764 0
0 -0.156434 0
-0.154513 -0.154494 0
0 -1.22465e-16 0
-0.156434 -1.20957e-16 0
-0.154513 -0.154494 0
-0.305216 -0.148764 0
-0.156434 -1.20957e-16 0
-0.309017 -1.16471e-16 0
-0.293896 -0.293872 0
-0.431774 -0.275318 0
-0.305216 -0.148764 0
-0.448403 -0.139372 0
-0.431774 -0.275318 0
-0.559021 -0.249984 0
-0.448403 -0.139372 0
-0.580551 -0.126547 0
-0.305216 -0.148764 0
-0.448403 -0.139372 0
-0.309017 -1.16471e-16 0
-0.45399 -1.09117e-16 0
-0.448403 -0.139372 0
-0.580551 -0.126547 0
-0.45399 -1.09117e-16 0
-0.587785 -9.9076e-17 0
0.587785 0 0
0.707107 0 0
0.580543 -0.126572 0
0.698399 -0.110629 0
0.707107 0 0
0.809017 0 0
0.698399 -0.110629 0
0.799058 -0.0919609 0
0.580543 -0.126572 0
0.698399 -0.110629 0
0.559016 -0.250023 0
0.672502 -0.21853 0
0.698399 -0.110629 0
0.799058 -0.0919609 0
0.672502 -0.21853 0
0.769428 -0.181655 0
0.809017 0 0
0.891007 0 0
0.799058 -0.0919609 0
0.880042 -0.0710288 0
0.891007 0 0
0.951057 0 0
0.880042 -0.0710288 0
0.939355 -0.0483477 0
0.799058 -0.0919609 0
0.880042 -0.0710288 0
0.769428 -0.181655 0
0.847408 -0.140307 0
0.880042 -0.0710288 0
0.939355 -0.0483477 0
0.847408 -0.140307 0
0.904522 -0.0955041 0
0.559016 -0.250023 0
0.672502 -0.21853 0
0.523727 -0.367314 0
0.630047 -0.321047 0
0.672502 -0.21853 0
0.769428 -0.181655 0
0.630047 -0.321047 0
0.720853 -0.266873 0
0.523727 -0.367314 0
0.630047 -0.321047 0
0.47554 -0.475559 0
0.572076 -0.415656 0
0.630047 -0.321047 0
0.720853 -0.266873 0
0.572076 -0.415656 0
0.654526 -0.345518 0
0.769428 -0.181655 0
0.847408 -0.140307 0
0.720853 -0.266873 0
0.793909 -0.206128 0
0.847408 -0.140307 0
0.904522 -0.0955041 0
0.793909 -0.206128 0
0.847417 -0.140307 0
0.720853 -0.266873 0
0.793909 -0.206128 0
0.654526 -0.345518 0
0.720861 -0.266872 0
0.793909 -0.206128 0
0.847417 -0.140307 0
0.720861 -0.266872 0
0.769445 -0.181654 0
0.47554 -0.475559 0
0.572076 -0.415656 0
0.415641 -0.572092 0
0.500017 -0.500029 0
0.572076 -0.415656 0
0.654526 -0.345518 0
0.500017 -0.500029 0
0.572082 -0.415654 0
0.415641 -0.572092 0
0.500017 -0.500029 0
0.345506 -0.654537 0
0.415645 -0.572089 0
0.500017 -0.500029 0
0.572082 -0.415654 0
0.415645 -0.572089 0
0.475549 -0.475554 0
0.654526 -0.345518 0
0.720861 -0.266872 0
0.572082 -0.415654 0
0.63006 -0.321043 0
0.720861 -0.266872 0
0.769445 -0.181654 0
0.63006 -0.321043 0
0.672525 -0.218527 0
0.572082 -0.415654 0
0.63006 -0.321043 0
0.475549 -0.475554 0
0.523745 -0.367309 0
0.63006 -0.321043 0
0.672525 -0.218527 0
0.523745 -0.367309 0
0.559044 -0.250019 0
0.345506 -0.654537 0
0.415645 -0.572089 0
0.266863 -0.720866 0
0.321037 -0.630062 0
0.415645 -0.572089 0
0.475549 -0.475554 0
0.321037 -0.630062 0
0.367306 -0.523744 0
0.266863 -0.720866 0
0.321037 -0.630062 0
0.181648 -0.769444 0
0.218523 -0.672521 0
0.321037 -0.630062 0
0.367306 -0.523744 0
0.218523 -0.672521 0
0.250018 -0.559037 0
0.475549 -0.475554 0
0.523745 -0.367309 0
0.367306 -0.523744 0
0.404532 -0.404529 0
0.523745 -0.367309 0
0.559044 -0.250019 0
0.404532 -0.404529 0
0.431798 -0.275353 0
0.367306 -0.523744 0
0.404532 -0.404529 0
0.250018 -0.559037 0
0.275358 -0.431788 0
0.404532 -0.404529 0
0.431798 -0.275353 0
0.275358 -0.431788 0
0.293918 -0.293907 0
0.181648 -0.769444 0
0.218523 -0.672521 0
0.0919603 -0.799075 0
0.110629 -0.698419 0
0.218523 -0.672521 0
0.250018 -0.559037 0
0.110629 -0.698419 0
0.126574 -0.580565 0
0.0919603 -0.799075 0
0.110629 -0.698419 0
8.09548e-06 -0.80903 0
1.02592e-05 -0.70712 0
0.110629 -0.698419 0
0.126574 -0.580565 0
1.02592e-05 -0.70712 0
1.29774e-05 -0.587797 0
0.250018 -0.559037 0
0.275358 -0.431788 0
0.126574 -0.580565 0
0.139403 -0.448415 0
0.275358 -0.431788 0
0.293918 -0.293907 0
0.139403 -0.448415 0
0.148801 -0.305223 0
0.126574 -0.580565 0
0.139403 -0.448415 0
1.29774e-05 -0.587797 0
1.61249e-05 -0.454 0
0.139403 -0.448415 0
0.148801 -0.305223 0
1.61249e-05 -0.454 0
1.95244e-05 -0.309024 0
8.09548e-06 -0.80903 0
1.02592e-05 -0.70712 0
-0.0919443 -0.799065 0
-0.110608 -0.698409 0
1.02592e-05 -0.70712 0
1.29774e-05 -0.587797 0
-0.110608 -0.698409 0
-0.126548 -0.580556 0
-0.0919443 -0.799065 0
-0.110608 -0.698409 0
-0.181633 -0.769424 0
-0.218504 -0.672502 0
-0.110608 -0.698409 0
-0.126548 -0.580556 0
-0.218504 -0.672502 0
-0.249994 -0.559019 0
1.29774e-05 -0.587797 0
1.61249e-05 -0.454 0
-0.126548 -0.580556 0
-0.139371 -0.448406 0
1.61249e-05 -0.454 0
1.95244e-05 -0.309024 0
-0.139371 -0.448406 0
-0.148762 -0.305215 0
-0.126548 -0.580556 0
-0.139371 -0.448406 0
-0.249994 -0.559019 0
-0.275327 -0.431771 0
-0.139371 -0.448406 0
-0.148762 -0.305215 0
-0.275327 -0.431771 0
-0.293881 -0.293891 0
-0.181633 -0.769424 0
-0.218504 -0.672502 0
-0.266848 -0.720837 0
-0.321018 -0.630035 0
-0.218504 -0.672502 0
-0.249994 -0.559019 0
-0.321018 -0.630035 0
-0.367283 -0.523718 0
-0.266848 -0.720837 0
-0.321018 -0.630035 0
-0.345493 -0.654502 0
-0.415628 -0.572055 0
-0.321018 -0.630035 0
-0.367283 -0.523718 0
-0.415628 -0.572055 0
-0.475528 -0.475522 0
-0.249994 -0.559019 0
-0.275327 -0.431771 0
-0.367283 -0.523718 0
-0.404503 -0.404505 0
-0.275327 -0.431771 0
-0.293881 -0.293891 0
-0.404503 -0.404505 0
-0.431763 -0.275332 0
-0.367283 -0.523718 0
-0.404503 -0.404505 0
-0.475528 -0.475522 0
-0.523719 -0.367279 0
-0.404503 -0.404505 0
-0.431763 -0.275332 0
-0.523719 -0.367279 0
-0.559013 -0.249993 0
-0.345493 -0.654502 0
-0.415628 -0.572055 0
-0.41563 -0.57205 0
-0.500003 -0.49999 0
-0.415628 -0.572055 0
-0.475528 -0.475522 0
-0.500003 -0.49999 0
-0.572064 -0.415618 0
-0.41563 -0.57205 0
-0.500003 -0.49999 0
-0.475533 -0.475514 0
-0.572066 -0.415615 0
-0.500003 -0.49999 0
-0.572064 -0.415618 0
-0.572066 -0.415615 0
-0.654513 -0.34548 0
-0.475528 -0.475522 0
-0.523719 -0.367279 0
-0.572064 -0.415618 0
-0.630038 -0.321011 0
-0.523719 -0.367279 0
-0.559013 -0.249993 0
-0.630038 -0.321011 0
-0.672498 -0.218499 0
-0.572064 -0.415618 0
-0.630038 -0.321011 0
-0.654513 -0.34548 0
-0.720844 -0.266838 0
-0.630038 -0.321011 0
-0.672498 -0.218499 0
-0.720844 -0.266838 0
-0.769424 -0.181626 0
-0.475533 -0.475514 0
-0.572066 -0.415615 0
-0.523725 -0.36727 0
-0.630042 -0.321006 0
-0.572066 -0.415615 0
-0.654513 -0.34548 0
-0.630042 -0.321006 0
-0.720845 -0.266837 0
-0.523725 -0.36727 0
-0.630042 -0.321006 0
-0.559021 -0.249984 0
-0.672503 -0.218494 0
-0.630042 -0.321006 0
-0.720845 -0.266837 0
-0.672503 -0.218494 0
-0.769427 -0.181624 0
-0.654513 -0.34548 0
-0.720844 -0.266838 0
-0.720845 -0.266837 0
-0.793899 -0.206096 0
-0.720844 -0.266838 0
-0.769424 -0.181626 0
-0.793899 -0.206096 0
-0.847403 -0.140281 0
-0.720845 -0.266837 0
-0.793899 -0.206096 0
-0.769427 -0.181624 0
-0.847404 -0.140281 0
-0.793899 -0.206096 0
-0.847403 -0.140281 0
-0.847404 -0.140281 0
-0.904515 -0.095483 0
-0.559021 -0.249984 0
-0.672503 -0.218494 0
-0.580551 -0.126547 0
-0.698404 -0.110606 0
-0.672503 -0.218494 0
-0.769427 -0.181624 0
-0.698404 -0.110606 0
-0.79906 -0.0919416 0
-0.580551 -0.126547 0
-0.698404 -0.110606 0
-0.587785 -9.9076e-17 0
-0.707107 -8.65956e-17 0
-0.698404 -0.110606 0
-0.79906 -0.0919416 0
-0.707107 -8.65956e-17 0
-0.809017 -7.19829e-17 0
-0.769427 -0.181624 0
-0.847404 -0.140281 0
-0.79906 -0.0919416 0
-0.880041 -0.0710129 0
-0.847404 -0.140281 0
-0.904515 -0.095483 0
-0.880041 -0.0710129 0
-0.939353 -0.0483354 0
-0.79906 -0.0919416 0
-0.880041 -0.0710129 0
-0.809017 -7.19829e-17 0
-0.891007 -5.55978e-17 0
-0.880041 -0.0710129 0
-0.939353 -0.0483354 0
-0.891007 -5.55978e-17 0
-0.951057 -3.78437e-17 0
0.951057 0 0
0.987688 0 0
0.939355 -0.0483477 0
0.975538 -0.0244761 0
0.987688 0 0
1 0 0
0.975538 -0.0244761 0
0.9877 -1.93293e-06 0
0.939355 -0.0483477 0
0.975538 -0.0244761 0
0.904522 -0.0955041 0
0.939364 -0.0483495 0
0.975538 -0.0244761 0
0.9877 -1.93293e-06 0
0.939364 -0.0483495 0
0.951075 -4.41998e-06 0
1 0 0
0.987688 0 0
0.9877 -1.93293e-06 0
0.97554 0.0244722 0
0.987688 0 0
0.951057 0 0
0.97554 0.0244722 0
0.939359 0.0483436 0
0.9877 -1.93293e-06 0
0.97554 0.0244722 0
0.951075 -4.41998e-06 0
0.939367 0.0483406 0
0.97554 0.0244722 0
0.939359 0.0483436 0
0.939367 0.0483406 0
0.904528 0.0954952 0
0.904522 -0.0955041 0
0.939364 -0.0483495 0
0.847417 -0.140307 0
0.880059 -0.0710314 0
0.939364 -0.0483495 0
0.951075 -4.41998e-06 0
0.880059 -0.0710314 0
0.891031 -6.65525e-06 0
0.847417 -0.140307 0
0.880059 -0.0710314 0
0.769445 -0.181654 0
0.799083 -0.0919633 0
0.880059 -0.0710314 0
0.891031 -6.65525e-06 0
0.799083 -0.0919633 0
0.809046 -8.10994e-06 0
0.951075 -4.41998e-06 0
0.939367 0.0483406 0
0.891031 -6.65525e-06 0
0.880062 0.0710182 0
0.939367 0.0483406 0
0.904528 0.0954952 0
0.880062 0.0710182 0
0.847423 0.140294 0
0.891031 -6.65525e-06 0
0.880062 0.0710182 0
0.809046 -8.10994e-06 0
0.799087 0.0919473 0
0.880062 0.0710182 0
0.847423 0.140294 0
0.799087 0.0919473 0
0.769451 0.181638 0
0.769445 -0.181654 0
0.799083 -0.0919633 0
0.672525 -0.218527 0
0.698431 -0.11063 0
0.799083 -0.0919633 0
0.809046 -8.10994e-06 0
0.698431 -0.11063 0
0.707139 -8.67445e-06 0
0.672525 -0.218527 0
0.698431 -0.11063 0
0.559044 -0.250019 0
0.580579 -0.126572 0
0.698431 -0.11063 0
0.707139 -8.67445e-06 0
0.580579 -0.126572 0
0.587818 -8.33869e-06 0
0.809046 -8.10994e-06 0
0.799087 0.0919473 0
0.707139 -8.67445e-06 0
0.698434 0.110613 0
0.799087 0.0919473 0
0.769451 0.181638 0
0.698434 0.110613 0
0.672532 0.218511 0
0.707139 -8.67445e-06 0
0.698434 0.110613 0
0.587818 -8.33869e-06 0
0.580584 0.126555 0
0.698434 0.110613 0
0.672532 0.218511 0
0.580584 0.126555 0
0.559053 0.250003 0
0.559044 -0.250019 0
0.580579 -0.126572 0
0.431798 -0.275353 0
0.448431 -0.139396 0
0.580579 -0.126572 0
0.587818 -8.33869e-06 0
0.448431 -0.139396 0
0.454024 -7.13225e-06 0
0.431798 -0.275353 0
0.448431 -0.139396 0
0.293918 -0.293907 0
0.305241 -0.148788 0
0.448431 -0.139396 0
0.454024 -7.13225e-06 0
0.305241 -0.148788 0
0.309049 -5.1634e-06 0
0.587818 -8.33869e-06 0
0.580584 0.126555 0
0.454024 -7.13225e-06 0
0.448436 0.139382 0
0.580584 0.126555 0
0.559053 0.250003 0
0.448436 0.139382 0
0.431807 0.27534 0
0.454024 -7.13225e-06 0
0.448436 0.139382 0
0.309049 -5.1634e-06 0
0.305247 0.148778 0
0.448436 0.139382 0
0.431807 0.27534 0
0.305247 0.148778 0
0.293928 0.293897 0
0.293918 -0.293907 0
0.305241 -0.148788 0
0.148801 -0.305223 0
0.154535 -0.154515 0
0.305241 -0.148788 0
0.309049 -5.1634e-06 0
0.154535 -0.154515 0
0.156464 -2.62588e-06 0
0.148801 -0.305223 0
0.154535 -0.154515 0
1.95244e-05 -0.309024 0
2.29375e-05 -0.156438 0
0.154535 -0.154515 0
0.156464 -2.62588e-06 0
2.29375e-05 -0.156438 0
2.60816e-05 2.2342e-07 0
0.309049 -5.1634e-06 0
0.305247 0.148778 0
0.156464 -2.62588e-06 0
0.15454 0.15451 0
0.305247 0.148778 0
0.293928 0.293897 0
0.15454 0.15451 0
0.148812 0.305219 0
0.156464 -2.62588e-06 0
0.15454 0.15451 0
2.60816e-05 2.2342e-07 0
2.86578e-05 0.156438 0
0.15454 0.15451 0
0.148812 0.305219 0
2.86578e-05 0.156438 0
3.03818e-05 0.309024 0
1.95244e-05 -0.309024 0
2.29375e-05 -0.156438 0
-0.148762 -0.305215 0
-0.154489 -0.154508 0
2.29375e-05 -0.156438 0
2.60816e-05 2.2342e-07 0
-0.154489 -0.154508 0
-0.156412 3.09438e-06 0
-0.148762 -0.305215 0
-0.154489 -0.154508 0
-0.293881 -0.293891 0
-0.305198 -0.148775 0
-0.154489 -0.154508 0
-0.156412 3.09438e-06 0
-0.305198 -0.148775 0
-0.308999 5.69403e-06 0
2.60816e-05 2.2342e-07 0
2.86578e-05 0.156438 0
-0.156412 3.09438e-06 0
-0.154484 0.154515 0
2.86578e-05 0.156438 0
3.03818e-05 0.309024 0
-0.154484 0.154515 0
-0.148752 0.305221 0
-0.156412 3.09438e-06 0
-0.154484 0.154515 0
-0.308999 5.69403e-06 0
-0.305193 0.148786 0
-0.154484 0.154515 0
-0.148752 0.305221 0
-0.305193 0.148786 0
-0.293871 0.293902 0
-0.293881 -0.293891 0
-0.305198 -0.148775 0
-0.431763 -0.275332 0
-0.448391 -0.139378 0
-0.305198 -0.148775 0
-0.308999 5.69403e-06 0
-0.448391 -0.139378 0
-0.453978 7.75464e-06 0
-0.431763 -0.275332 0
-0.448391 -0.139378 0
-0.559013 -0.249993 0
-0.580543 -0.12655 0
-0.448391 -0.139378 0
-0.453978 7.75464e-06 0
-0.580543 -0.12655 0
-0.587777 9.05572e-06 0
-0.308999 5.69403e-06 0
-0.305193 0.148786 0
-0.453978 7.75464e-06 0
-0.448386 0.139393 0
-0.305193 0.148786 0
-0.293871 0.293902 0
-0.448386 0.139393 0
-0.431754 0.275346 0
-0.453978 7.75464e-06 0
-0.448386 0.139393 0
-0.587777 9.05572e-06 0
-0.580539 0.126568 0
-0.448386 0.139393 0
-0.431754 0.275346 0
-0.580539 0.126568 0
-0.559005 0.25001 0
-0.559013 -0.249993 0
-0.580543 -0.12655 0
-0.672498 -0.218499 0
-0.698399 -0.110606 0
-0.580543 -0.12655 0
-0.587777 9.05572e-06 0
-0.698399 -0.110606 0
-0.707103 9.43756e-06 0
-0.672498 -0.218499 0
-0.698399 -0.110606 0
-0.769424 -0.181626 0
-0.799058 -0.0919403 0
-0.698399 -0.110606 0
-0.707103 9.43756e-06 0
-0.799058 -0.0919403 0
-0.809017 8.81903e-06 0
-0.587777 9.05572e-06 0
-0.580539 0.126568 0
-0.707103 9.43756e-06 0
-0.698396 0.110625 0
-0.580539 0.126568 0
-0.559005 0.25001 0
-0.698396 0.110625 0
-0.672491 0.218516 0
-0.707103 9.43756e-06 0
-0.698396 0.110625 0
-0.809017 8.81903e-06 0
-0.799055 0.0919576 0
-0.698396 0.110625 0
-0.672491 0.218516 0
-0.799055 0.0919576 0
-0.769418 0.181642 0
-0.769424 -0.181626 0
-0.799058 -0.0919403 0
-0.847403 -0.140281 0
-0.880042 -0.0710111 0
-0.799058 -0.0919403 0
-0.809017 8.81903e-06 0
-0.880042 -0.0710111 0
-0.89101 7.25323e-06 0
-0.847403 -0.140281 0
-0.880042 -0.0710111 0
-0.904515 -0.095483 0
-0.939354 -0.0483341 0
-0.880042 -0.0710111 0
-0.89101 7.25323e-06 0
-0.939354 -0.0483341 0
-0.951063 5.01347e-06 0
-0.809017 8.81903e-06 0
-0.799055 0.0919576 0
-0.89101 7.25323e-06 0
-0.880039 0.0710253 0
-0.799055 0.0919576 0
-0.769418 0.181642 0
-0.880039 0.0710253 0
-0.847399 0.140294 0
-0.89101 7.25323e-06 0
-0.880039 0.0710253 0
-0.951063 5.01347e-06 0
-0.939353 0.0483439 0
-0.880039 0.0710253 0
-0.847399 0.140294 0
-0.939353 0.0483439 0
-0.904513 0.0954922 0
-0.904515 -0.095483 0
-0.939354 -0.0483341 0
-0.939353 -0.0483354 0
-0.975534 -0.0244677 0
-0.939354 -0.0483341 0
-0.951063 5.01347e-06 0
-0.975534 -0.0244677 0
-0.987695 2.54486e-06 0
-0.939353 -0.0483354 0
-0.975534 -0.0244677 0
-0.951057 -3.78437e-17 0
-0.987688 -1.91577e-17 0
-0.975534 -0.0244677 0
-0.987695 2.54486e-06 0
-0.987688 -1.91577e-17 0