# vtk DataFile Version 3.0
#This file was generated by the deal.II library on 2026/5/29 at 10:36:49
ASCII
DATASET UNSTRUCTURED_GRID

POINTS 6400 double
0 0 0
0.025 0 0
0 0.025 0
0.025 0.025 0
0.025 0 0
0.05 0 0
0.025 0.025 0
0.05 0.025 0
0 0.025 0
0.025 0.025 0
0 0.05 0
0.025 0.05 0
0.025 0.025 0
0.05 0.025 0
0.025 0.05 0
0.05 0.05 0
0.05 0 0
0.075 0 0
0.05 0.025 0
0.075 0.025 0
0.075 0 0
0.1 0 0
0.075 0.025 0
0.1 0.025 0
0.05 0.025 0
0.075 0.025 0
0.05 0.05 0
0.075 0.05 0
0.075 0.025 0
0.1 0.025 0
0.075 0.05 0
0.1 0.05 0
0 0.05 0
0.025 0.05 0
0 0.075 0
0.025 0.075 0
0.025 0.05 0
0.05 0.05 0
0.025 0.075 0
0.05 0.075 0
0 0.075 0
0.025 0.075 0
0 0.1 0
0.025 0.1 0
0.025 0.075 0
0.05 0.075 0
0.025 0.1 0
0.05 0.1 0
0.05 0.05 0
0.075 0.05 0
0.05 0.075 0
0.075 0.075 0
0.075 0.05 0
0.1 0.05 0
0.075 0.075 0
0.1 0.075 0
0.05 0.075 0
0.075 0.075 0
0.05 0.1 0
0.075 0.1 0
0.075 0.075 0
0.1 0.075 0
0.075 0.1 0
0.1 0.1 0
0.1 0 0
0.125 0 0
0.1 0.025 0
0.125 0.025 0
0.125 0 0
0.15 0 0
0.125 0.025 0
0.15 0.025 0
0.1 0.025 0
0.125 0.025 0
0.1 0.05 0
0.125 0.05 0
0.125 0.025 0
0.15 0.025 0
0.125 0.05 0
0.15 0.05 0
0.15 0 0
0.175 0 0
0.15 0.025 0
0.175 0.025 0
0.175 0 0
0.2 0 0
0.175 0.025 0
0.2 0.025 0
0.15 0.025 0
0.175 0.025 0
0.15 0.05 0
0.175 0.05 0
0.175 0.025 0
0.2 0.025 0
0.175 0.05 0
0.2 0.05 0
0.1 0.05 0
0.125 0.05 0
0.1 0.075 0
0.125 0.075 0
0.125 0.05 0
0.15 0.05 0
0.125 0.075 0
0.15 0.075 0
0.1 0.075 0
0.125 0.075 0
0.1 0.1 0
0.125 0.1 0
0.125 0.075 0
0.15 0.075 0
0.125 0.1 0
0.15 0.1 0
0.15 0.05 0
0.175 0.05 0
0.15 0.075 0
0.175 0.075 0
0.175 0.05 0
0.2 0.05 0
0.175 0.075 0
0.2 0.075 0
0.15 0.075 0
0.175 0.075 0
0.15 0.1 0
0.175 0.1 0
0.175 0.075 0
0.2 0.075 0
0.175 0.1 0
0.2 0.1 0
0 0.1 0
0.025 0.1 0
0 0.125 0
0.025 0.125 0
0.025 0.1 0
0.05 0.1 0
0.025 0.125 0
0.05 0.125 0
0 0.125 0
0.025 0.125 0
0 0.15 0
0.025 0.15 0
0.025 0.125 0
0.05 0.125 0
0.025 0.15 0
0.05 0.15 0
0.05 0.1 0
0.075 0.1 0
0.05 0.125 0
0.075 0.125 0
0.075 0.1 0
0.1 0.1 0
0.075 0.125 0
0.1 0.125 0
0.05 0.125 0
0.075 0.125 0
0.05 0.15 0
0.075 0.15 0
0.075 0.125 0
0.1 0.125 0
0.075 0.15 0
0.1 0.15 0
0 0.15 0
0.025 0.15 0
0 0.175 0
0.025 0.175 0
0.025 0.15 0
0.05 0.15 0
0.025 0.175 0
0.05 0.175 0
0 0.175 0
0.025 0.175 0
0 0.2 0
0.025 0.2 0
0.025 0.175 0
0.05 0.175 0
0.025 0.2 0
0.05 0.2 0
0.05 0.15 0
0.075 0.15 0
0.05 0.175 0
0.075 0.175 0
0.075 0.15 0
0.1 0.15 0
0.075 0.175 0
0.1 0.175 0
0.05 0.175 0
0.075 0.175 0
0.05 0.2 0
0.075 0.2 0
0.075 0.175 0
0.1 0.175 0
0.075 0.2 0
0.1 0.2 0
0.1 0.1 0
0.125 0.1 0
0.1 0.125 0
0.125 0.125 0
0.125 0.1 0
0.15 0.1 0
0.125 0.125 0
0.15 0.125 0
0.1 0.125 0
0.125 0.125 0
0.1 0.15 0
0.125 0.15 0
0.125 0.125 0
0.15 0.125 0
0.125 0.15 0
0.15 0.15 0
0.15 0.1 0
0.175 0.1 0
0.15 0.125 0
0.175 0.125 0
0.175 0.1 0
0.2 0.1 0
0.175 0.125 0
0.2 0.125 0
0.15 0.125 0
0.175 0.125 0
0.15 0.15 0
0.175 0.15 0
0.175 0.125 0
0.2 0.125 0
0.175 0.15 0
0.2 0.15 0
0.1 0.15 0
0.125 0.15 0
0.1 0.175 0
0.125 0.175 0
0.125 0.15 0
0.15 0.15 0
0.125 0.175 0
0.15 0.175 0
0.1 0.175 0
0.125 0.175 0
0.1 0.2 0
0.125 0.2 0
0.125 0.175 0
0.15 0.175 0
0.125 0.2 0
0.15 0.2 0
0.15 0.15 0
0.175 0.15 0
0.15 0.175 0
0.175 0.175 0
0.175 0.15 0
0.2 0.15 0
0.175 0.175 0
0.2 0.175 0
0.15 0.175 0
0.175 0.175 0
0.15 0.2 0
0.175 0.2 0
0.175 0.175 0
0.2 0.175 0
0.175 0.2 0
0.2 0.2 0
0 0.2 0
0.025 0.2 0
0 0.225 0
0.025 0.225 0
0.025 0.2 0
0.05 0.2 0
0.025 0.225 0
0.05 0.225 0
0 0.225 0
0.025 0.225 0
0 0.25 0
0.025 0.25 0
0.025 0.225 0
0.05 0.225 0
0.025 0.25 0
0.05 0.25 0
0.05 0.2 0
0.075 0.2 0
0.05 0.225 0
0.075 0.225 0
0.075 0.2 0
0.1 0.2 0
0.075 0.225 0
0.1 0.225 0
0.05 0.225 0
0.075 0.225 0
0.05 0.25 0
0.075 0.25 0
0.075 0.225 0
0.1 0.225 0
0.075 0.25 0
0.1 0.25 0
0 0.25 0
0.025 0.25 0
0 0.275 0
0.025 0.275 0
0.025 0.25 0
0.05 0.25 0
0.025 0.275 0
0.05 0.275 0
0 0.275 0
0.025 0.275 0
0 0.3 0
0.025 0.3 0
0.025 0.275 0
0.05 0.275 0
0.025 0.3 0
0.05 0.3 0
0.05 0.25 0
0.075 0.25 0
0.05 0.275 0
0.075 0.275 0
0.075 0.25 0
0.1 0.25 0
0.075 0.275 0
0.1 0.275 0
0.05 0.275 0
0.075 0.275 0
0.05 0.3 0
0.075 0.3 0
0.075 0.275 0
0.1 0.275 0
0.075 0.3 0
0.1 0.3 0
0.1 0.2 0
0.125 0.2 0
0.1 0.225 0
0.125 0.225 0
0.125 0.2 0
0.15 0.2 0
0.125 0.225 0
0.15 0.225 0
0.1 0.225 0
0.125 0.225 0
0.1 0.25 0
0.125 0.25 0
0.125 0.225 0
0.15 0.225 0
0.125 0.25 0
0.15 0.25 0
0.15 0.2 0
0.175 0.2 0
0.15 0.225 0
0.175 0.225 0
0.175 0.2 0
0.2 0.2 0
0.175 0.225 0
0.2 0.225 0
0.15 0.225 0
0.175 0.225 0
0.15 0.25 0
0.175 0.25 0
0.175 0.225 0
0.2 0.225 0
0.175 0.25 0
0.2 0.25 0
0.1 0.25 0
0.125 0.25 0
0.1 0.275 0
0.125 0.275 0
0.125 0.25 0
0.15 0.25 0
0.125 0.275 0
0.15 0.275 0
0.1 0.275 0
0.125 0.275 0
0.1 0.3 0
0.125 0.3 0
0.125 0.275 0
0.15 0.275 0
0.125 0.3 0
0.15 0.3 0
0.15 0.25 0
0.175 0.25 0
0.15 0.275 0
0.175 0.275 0
0.175 0.25 0
0.2 0.25 0
0.175 0.275 0
0.2 0.275 0
0.15 0.275 0
0.175 0.275 0
0.15 0.3 0
0.175 0.3 0
0.175 0.275 0
0.2 0.275 0
0.175 0.3 0
0.2 0.3 0
0 0.3 0
0.025 0.3 0
0 0.325 0
0.025 0.325 0
0.025 0.3 0
0.05 0.3 0
0.025 0.325 0
0.05 0.325 0
0 0.325 0
0.025 0.325 0
0 0.35 0
0.025 0.35 0
0.025 0.325 0
0.05 0.325 0
0.025 0.35 0
0.05 0.35 0
0.05 0.3 0
0.075 0.3 0
0.05 0.325 0
0.075 0.325 0
0.075 0.3 0
0.1 0.3 0
0.075 0.325 0
0.1 0.325 0
0.05 0.325 0
0.075 0.325 0
0.05 0.35 0
0.075 0.35 0
0.075 0.325 0
0.1 0.325 0
0.075 0.35 0
0.1 0.35 0
0 0.35 0
0.025 0.35 0
0 0.375 0
0.025 0.375 0
0.025 0.35 0
0.05 0.35 0
0.025 0.375 0
0.05 0.375 0
0 0.375 0
0.025 0.375 0
0 0.4 0
0.025 0.4 0
0.025 0.375 0
0.05 0.375 0
0.025 0.4 0
0.05 0.4 0
0.05 0.35 0
0.075 0.35 0
0.05 0.375 0
0.075 0.375 0
0.075 0.35 0
0.1 0.35 0
0.075 0.375 0
0.1 0.375 0
0.05 0.375 0
0.075 0.375 0
0.05 0.4 0
0.075 0.4 0
0.075 0.375 0
0.1 0.375 0
0.075 0.4 0
0.1 0.4 0
0.1 0.3 0
0.125 0.3 0
0.1 0.325 0
0.125 0.325 0
0.125 0.3 0
0.15 0.3 0
0.125 0.325 0
0.15 0.325 0
0.1 0.325 0
0.125 0.325 0
0.1 0.35 0
0.125 0.35 0
0.125 0.325 0
0.15 0.325 0
0.125 0.35 0
0.15 0.35 0
0.15 0.3 0
0.175 0.3 0
0.15 0.325 0
0.175 0.325 0
0.175 0.3 0
0.2 0.3 0
0.175 0.325 0
0.2 0.325 0
0.15 0.325 0
0.175 0.325 0
0.15 0.35 0
0.175 0.35 0
0.175 0.325 0
0.2 0.325 0
0.175 0.35 0
0.2 0.35 0
0.1 0.35 0
0.125 0.35 0
0.1 0.375 0
0.125 0.375 0
0.125 0.35 0
0.15 0.35 0
0.125 0.375 0
0.15 0.375 0
0.1 0.375 0
0.125 0.375 0
0.1 0.4 0
0.125 0.4 0
0.125 0.375 0
0.15 0.375 0
0.125 0.4 0
0.15 0.4 0
0.15 0.35 0
0.175 0.35 0
0.15 0.375 0
0.175 0.375 0
0.175 0.35 0
0.2 0.35 0
0.175 0.375 0
0.2 0.375 0
0.15 0.375 0
0.175 0.375 0
0.15 0.4 0
0.175 0.4 0
0.175 0.375 0
0.2 0.375 0
0.175 0.4 0
0.2 0.4 0
0 0.4 0
0.025 0.4 0
0 0.425 0
0.025 0.425 0
0.025 0.4 0
0.05 0.4 0
0.025 0.425 0
0.05 0.425 0
0 0.425 0
0.025 0.425 0
0 0.45 0
0.025 0.45 0
0.025 0.425 0
0.05 0.425 0
0.025 0.45 0
0.05 0.45 0
0.05 0.4 0
0.075 0.4 0
0.05 0.425 0
0.075 0.425 0
0.075 0.4 0
0.1 0.4 0
0.075 0.425 0
0.1 0.425 0
0.05 0.425 0
0.075 0.425 0
0.05 0.45 0
0.075 0.45 0
0.075 0.425 0
0.1 0.425 0
0.075 0.45 0
0.1 0.45 0
0 0.45 0
0.025 0.45 0
0 0.475 0
0.025 0.475 0
0.025 0.45 0
0.05 0.45 0
0.025 0.475 0
0.05 0.475 0
0 0.475 0
0.025 0.475 0
0 0.5 0
0.025 0.5 0
0.025 0.475 0
0.05 0.475 0
0.025 0.5 0
0.05 0.5 0
0.05 0.45 0
0.075 0.45 0
0.05 0.475 0
0.075 0.475 0
0.075 0.45 0
0.1 0.45 0
0.075 0.475 0
0.1 0.475 0
0.05 0.475 0
0.075 0.475 0
0.05 0.5 0
0.075 0.5 0
0.075 0.475 0
0.1 0.475 0
0.075 0.5 0
0.1 0.5 0
0.1 0.4 0
0.125 0.4 0
0.1 0.425 0
0.125 0.425 0
0.125 0.4 0
0.15 0.4 0
0.125 0.425 0
0.15 0.425 0
0.1 0.425 0
0.125 0.425 0
0.1 0.45 0
0.125 0.45 0
0.125 0.425 0
0.15 0.425 0
0.125 0.45 0
0.15 0.45 0
0.15 0.4 0
0.175 0.4 0
0.15 0.425 0
0.175 0.425 0
0.175 0.4 0
0.2 0.4 0
0.175 0.425 0
0.2 0.425 0
0.15 0.425 0
0.175 0.425 0
0.15 0.45 0
0.175 0.45 0
0.175 0.425 0
0.2 0.425 0
0.175 0.45 0
0.2 0.45 0
0.1 0.45 0
0.125 0.45 0
0.1 0.475 0
0.125 0.475 0
0.125 0.45 0
0.15 0.45 0
0.125 0.475 0
0.15 0.475 0
0.1 0.475 0
0.125 0.475 0
0.1 0.5 0
0.125 0.5 0
0.125 0.475 0
0.15 0.475 0
0.125 0.5 0
0.15 0.5 0
0.15 0.45 0
0.175 0.45 0
0.15 0.475 0
0.175 0.475 0
0.175 0.45 0
0.2 0.45 0
0.175 0.475 0
0.2 0.475 0
0.15 0.475 0
0.175 0.475 0
0.15 0.5 0
0.175 0.5 0
0.175 0.475 0
0.2 0.475 0
0.175 0.5 0
0.2 0.5 0
0 0.5 0
0.025 0.5 0
0 0.525 0
0.025 0.525 0
0.025 0.5 0
0.05 0.5 0
0.025 0.525 0
0.05 0.525 0
0 0.525 0
0.025 0.525 0
0 0.55 0
0.025 0.55 0
0.025 0.525 0
0.05 0.525 0
0.025 0.55 0
0.05 0.55 0
0.05 0.5 0
0.075 0.5 0
0.05 0.525 0
0.075 0.525 0
0.075 0.5 0
0.1 0.5 0
0.075 0.525 0
0.1 0.525 0
0.05 0.525 0
0.075 0.525 0
0.05 0.55 0
0.075 0.55 0
0.075 0.525 0
0.1 0.525 0
0.075 0.55 0
0.1 0.55 0
0 0.55 0
0.025 0.55 0
0 0.575 0
0.025 0.575 0
0.025 0.55 0
0.05 0.55 0
0.025 0.575 0
0.05 0.575 0
0 0.575 0
0.025 0.575 0
0 0.6 0
0.025 0.6 0
0.025 0.575 0
0.05 0.575 0
0.025 0.6 0
0.05 0.6 0
0.05 0.55 0
0.075 0.55 0
0.05 0.575 0
0.075 0.575 0
0.075 0.55 0
0.1 0.55 0
0.075 0.575 0
0.1 0.575 0
0.05 0.575 0
0.075 0.575 0
0.05 0.6 0
0.075 0.6 0
0.075 0.575 0
0.1 0.575 0
0.075 0.6 0
0.1 0.6 0
0.1 0.5 0
0.125 0.5 0
0.1 0.525 0
0.125 0.525 0
0.125 0.5 0
0.15 0.5 0
0.125 0.525 0
0.15 0.525 0
0.1 0.525 0
0.125 0.525 0
0.1 0.55 0
0.125 0.55 0
0.125 0.525 0
0.15 0.525 0
0.125 0.55 0
0.15 0.55 0
0.15 0.5 0
0.175 0.5 0
0.15 0.525 0
0.175 0.525 0
0.175 0.5 0
0.2 0.5 0
0.175 0.525 0
0.2 0.525 0
0.15 0.525 0
0.175 0.525 0
0.15 0.55 0
0.175 0.55 0
0.175 0.525 0
0.2 0.525 0
0.175 0.55 0
0.2 0.55 0
0.1 0.55 0
0.125 0.55 0
0.1 0.575 0
0.125 0.575 0
0.125 0.55 0
0.15 0.55 0
0.125 0.575 0
0.15 0.575 0
0.1 0.575 0
0.125 0.575 0
0.1 0.6 0
0.125 0.6 0
0.125 0.575 0
0.15 0.575 0
0.125 0.6 0
0.15 0.6 0
0.15 0.55 0
0.175 0.55 0
0.15 0.575 0
0.175 0.575 0
0.175 0.55 0
0.2 0.55 0
0.175 0.575 0
0.2 0.575 0
0.15 0.575 0
0.175 0.575 0
0.15 0.6 0
0.175 0.6 0
0.175 0.575 0
0.2 0.575 0
0.175 0.6 0
0.2 0.6 0
0 0.6 0
0.025 0.6 0
0 0.625 0
0.025 0.625 0
0.025 0.6 0
0.05 0.6 0
0.025 0.625 0
0.05 0.625 0
0 0.625 0
0.025 0.625 0
0 0.65 0
0.025 0.65 0
0.025 0.625 0
0.05 0.625 0
0.025 0.65 0
0.05 0.65 0
0.05 0.6 0
0.075 0.6 0
0.05 0.625 0
0.075 0.625 0
0.075 0.6 0
0.1 0.6 0
0.075 0.625 0
0.1 0.625 0
0.05 0.625 0
0.075 0.625 0
0.05 0.65 0
0.075 0.65 0
0.075 0.625 0
0.1 0.625 0
[...]
POINT_DATA 6400
VECTORS velocity double
0 0 0
0.0784591 0 0
0 -0.0784591 0
0.0782167 -0.078218 0
0.0784591 0 0
0.156434 0 0
0.0782167 -0.078218 0
0.155952 -0.077494 0
0 -0.0784591 0
0.0782167 -0.078218 0
0 -0.156434 0
0.0774928 -0.155953 0
0.0782167 -0.078218 0
0.155952 -0.077494 0
0.0774928 -0.155953 0
0.154508 -0.15451 0
0.156434 0 0
0.233445 0 0
0.155952 -0.077494 0
0.232725 -0.0762921 0
0.233445 0 0
0.309017 0 0
0.232725 -0.0762921 0
0.308064 -0.0746199 0
0.155952 -0.077494 0
0.232725 -0.0762921 0
0.154508 -0.15451 0
0.230571 -0.152113 0
0.232725 -0.0762921 0
0.308064 -0.0746199 0
0.230571 -0.152113 0
0.305212 -0.148779 0
0 -0.156434 0
0.0774928 -0.155953 0
0 -0.233445 0
0.0762911 -0.232726 0
0.0774928 -0.155953 0
0.154508 -0.15451 0
0.0762911 -0.232726 0
0.152112 -0.230572 0
0 -0.233445 0
0.0762911 -0.232726 0
0 -0.309017 0
0.074619 -0.308065 0
0.0762911 -0.232726 0
0.152112 -0.230572 0
0.074619 -0.308065 0
0.148778 -0.305214 0
0.154508 -0.15451 0
0.230571 -0.152113 0
0.152112 -0.230572 0
0.226995 -0.226997 0
0.230571 -0.152113 0
0.305212 -0.148779 0
0.226995 -0.226997 0
0.300478 -0.222021 0
0.152112 -0.230572 0
0.226995 -0.226997 0
0.148778 -0.305214 0
0.22202 -0.30048 0
0.226995 -0.226997 0
0.300478 -0.222021 0
0.22202 -0.30048 0
0.293892 -0.293894 0
0.309017 0 0
0.382683 0 0
0.308064 -0.0746199 0
0.381503 -0.0724876 0
0.382683 0 0
0.45399 0 0
0.381503 -0.0724876 0
0.452591 -0.0699084 0
0.308064 -0.0746199 0
0.381503 -0.0724876 0
0.305212 -0.148779 0
0.377971 -0.144528 0
0.381503 -0.0724876 0
0.452591 -0.0699084 0
0.377971 -0.144528 0
0.448401 -0.139385 0
0.45399 0 0
0.522499 0 0
0.452591 -0.0699084 0
0.520888 -0.0668982 0
0.522499 0 0
0.587785 0 0
0.520888 -0.0668982 0
0.585973 -0.0634755 0
0.452591 -0.0699084 0
0.520888 -0.0668982 0
0.448401 -0.139385 0
0.516065 -0.133384 0
0.520888 -0.0668982 0
0.585973 -0.0634755 0
0.516065 -0.133384 0
0.580548 -0.126559 0
0.305212 -0.148779 0
0.377971 -0.144528 0
0.300478 -0.222021 0
0.372109 -0.215677 0
0.377971 -0.144528 0
0.448401 -0.139385 0
0.372109 -0.215677 0
0.441446 -0.208003 0
0.300478 -0.222021 0
0.372109 -0.215677 0
0.293892 -0.293894 0
0.363953 -0.285496 0
0.372109 -0.215677 0
0.441446 -0.208003 0
0.363953 -0.285496 0
0.43177 -0.275338 0
0.448401 -0.139385 0
0.516065 -0.133384 0
0.441446 -0.208003 0
0.508062 -0.199046 0
0.516065 -0.133384 0
0.580548 -0.126559 0
0.508062 -0.199046 0
0.571545 -0.188863 0
0.441446 -0.208003 0
0.508062 -0.199046 0
0.43177 -0.275338 0
0.496926 -0.263482 0
0.508062 -0.199046 0
0.571545 -0.188863 0
0.496926 -0.263482 0
0.559017 -0.250002 0
0 -0.309017 0
0.074619 -0.308065 0
0 -0.382683 0
0.0724868 -0.381504 0
0.074619 -0.308065 0
0.148778 -0.305214 0
0.0724868 -0.381504 0
0.144527 -0.377973 0
0 -0.382683 0
0.0724868 -0.381504 0
0 -0.45399 0
0.0699076 -0.452592 0
0.0724868 -0.381504 0
0.144527 -0.377973 0
0.0699076 -0.452592 0
0.139384 -0.448402 0
0.148778 -0.305214 0
0.22202 -0.30048 0
0.144527 -0.377973 0
0.215675 -0.372111 0
0.22202 -0.30048 0
0.293892 -0.293894 0
0.215675 -0.372111 0
0.285494 -0.363955 0
0.144527 -0.377973 0
0.215675 -0.372111 0
0.139384 -0.448402 0
0.208001 -0.441448 0
0.215675 -0.372111 0
0.285494 -0.363955 0
0.208001 -0.441448 0
0.275336 -0.431772 0
0 -0.45399 0
0.0699076 -0.452592 0
0 -0.522499 0
0.0668975 -0.520888 0
0.0699076 -0.452592 0
0.139384 -0.448402 0
0.0668975 -0.520888 0
0.133382 -0.516067 0
0 -0.522499 0
0.0668975 -0.520888 0
0 -0.587785 0
0.0634748 -0.585974 0
0.0668975 -0.520888 0
0.133382 -0.516067 0
0.0634748 -0.585974 0
0.126558 -0.58055 0
0.139384 -0.448402 0
0.208001 -0.441448 0
0.133382 -0.516067 0
0.199045 -0.508063 0
0.208001 -0.441448 0
0.275336 -0.431772 0
0.199045 -0.508063 0
0.263481 -0.496927 0
0.133382 -0.516067 0
0.199045 -0.508063 0
0.126558 -0.58055 0
0.188862 -0.571546 0
0.199045 -0.508063 0
0.263481 -0.496927 0
0.188862 -0.571546 0
0.25 -0.559019 0
0.293892 -0.293894 0
0.363953 -0.285496 0
0.285494 -0.363955 0
0.353553 -0.353555 0
0.363953 -0.285496 0
0.43177 -0.275338 0
0.353553 -0.353555 0
0.419433 -0.340975 0
0.285494 -0.363955 0
0.353553 -0.353555 0
0.275336 -0.431772 0
0.340974 -0.419434 0
0.353553 -0.353555 0
0.419433 -0.340975 0
0.340974 -0.419434 0
0.404509 -0.40451 0
0.43177 -0.275338 0
0.496926 -0.263482 0
0.419433 -0.340975 0
0.482726 -0.326293 0
0.496926 -0.263482 0
0.559017 -0.250002 0
0.482726 -0.326293 0
0.543043 -0.309599 0
0.419433 -0.340975 0
0.482726 -0.326293 0
0.404509 -0.40451 0
0.46555 -0.387092 0
0.482726 -0.326293 0
0.543043 -0.309599 0
0.46555 -0.387092 0
0.523721 -0.367288 0
0.275336 -0.431772 0
0.340974 -0.419434 0
0.263481 -0.496927 0
0.326292 -0.482727 0
0.340974 -0.419434 0
0.404509 -0.40451 0
0.326292 -0.482727 0
0.387091 -0.465551 0
0.263481 -0.496927 0
0.326292 -0.482727 0
0.25 -0.559019 0
0.309598 -0.543045 0
0.326292 -0.482727 0
0.387091 -0.465551 0
0.309598 -0.543045 0
0.367287 -0.523722 0
0.404509 -0.40451 0
0.46555 -0.387092 0
0.387091 -0.465551 0
0.445504 -0.445505 0
0.46555 -0.387092 0
0.523721 -0.367288 0
0.445504 -0.445505 0
0.50117 -0.422712 0
0.387091 -0.465551 0
0.445504 -0.445505 0
0.367287 -0.523722 0
0.422711 -0.501171 0
0.445504 -0.445505 0
0.50117 -0.422712 0
0.422711 -0.501171 0
0.475529 -0.47553 0
0 -0.587785 0
0.0634748 -0.585974 0
0 -0.649448 0
0.0596609 -0.647447 0
0.0634748 -0.585974 0
0.126558 -0.58055 0
0.0596609 -0.647447 0
0.118954 -0.641453 0
0 -0.649448 0
0.0596609 -0.647447 0
0 -0.707107 0
0.0554791 -0.704928 0
0.0596609 -0.647447 0
0.118954 -0.641453 0
0.0554791 -0.704928 0
0.110616 -0.698402 0
0.126558 -0.58055 0
0.188862 -0.571546 0
0.118954 -0.641453 0
0.177514 -0.631505 0
0.188862 -0.571546 0
0.25 -0.559019 0
0.177514 -0.631505 0
0.234979 -0.617663 0
0.118954 -0.641453 0
0.177514 -0.631505 0
0.110616 -0.698402 0
0.165071 -0.687571 0
0.177514 -0.631505 0
0.234979 -0.617663 0
0.165071 -0.687571 0
0.218509 -0.6725 0
0 -0.707107 0
0.0554791 -0.704928 0
0 -0.760406 0
0.0509552 -0.758062 0
0.0554791 -0.704928 0
0.110616 -0.698402 0
0.0509552 -0.758062 0
0.101596 -0.751045 0
0 -0.760406 0
0.0509552 -0.758062 0
0 -0.809017 0
0.0461172 -0.806524 0
0.0509552 -0.758062 0
0.101596 -0.751045 0
0.0461172 -0.806524 0
0.0919502 -0.799058 0
0.110616 -0.698402 0
0.165071 -0.687571 0
0.101596 -0.751045 0
0.151611 -0.739397 0
0.165071 -0.687571 0
0.218509 -0.6725 0
0.151611 -0.739397 0
0.200691 -0.723191 0
0.101596 -0.751045 0
0.151611 -0.739397 0
0.0919502 -0.799058 0
0.137216 -0.786665 0
0.151611 -0.739397 0
0.200691 -0.723191 0
0.137216 -0.786665 0
0.181636 -0.769422 0
0.25 -0.559019 0
0.309598 -0.543045 0
0.234979 -0.617663 0
0.290995 -0.600013 0
0.309598 -0.543045 0
0.367287 -0.523722 0
0.290995 -0.600013 0
0.345218 -0.578664 0
0.234979 -0.617663 0
0.290995 -0.600013 0
0.218509 -0.6725 0
0.270599 -0.653283 0
0.290995 -0.600013 0
0.345218 -0.578664 0
0.270599 -0.653283 0
0.32102 -0.630039 0
0.367287 -0.523722 0
0.422711 -0.501171 0
0.345218 -0.578664 0
0.397312 -0.553747 0
0.422711 -0.501171 0
0.475529 -0.47553 0
0.397312 -0.553747 0
0.446956 -0.525416 0
0.345218 -0.578664 0
0.397312 -0.553747 0
0.32102 -0.630039 0
0.369463 -0.60291 0
0.397312 -0.553747 0
0.446956 -0.525416 0
0.369463 -0.60291 0
0.415628 -0.572063 0
0.218509 -0.6725 0
0.270599 -0.653283 0
0.200691 -0.723191 0
0.248534 -0.702525 0
0.270599 -0.653283 0
0.32102 -0.630039 0
0.248534 -0.702525 0
0.294844 -0.677529 0
0.200691 -0.723191 0
0.248534 -0.702525 0
0.181636 -0.769422 0
0.224936 -0.747436 0
0.248534 -0.702525 0
0.294844 -0.677529 0
0.224936 -0.747436 0
0.26685 -0.720841 0
0.32102 -0.630039 0
0.369463 -0.60291 0
0.294844 -0.677529 0
0.339337 -0.648355 0
0.369463 -0.60291 0
0.415628 -0.572063 0
0.339337 -0.648355 0
0.381737 -0.615183 0
0.294844 -0.677529 0
0.339337 -0.648355 0
0.26685 -0.720841 0
0.307118 -0.689802 0
0.339337 -0.648355 0
0.381737 -0.615183 0
0.307118 -0.689802 0
0.345492 -0.65451 0
0 -0.809017 0
0.0461172 -0.806524 0
0 -0.85264 0
0.0409949 -0.850012 0
0.0461172 -0.806524 0
0.0919502 -0.799058 0
0.0409949 -0.850012 0
0.0817371 -0.842144 0
0 -0.85264 0
0.0409949 -0.850012 0
0 -0.891007 0
0.0356198 -0.88826 0
0.0409949 -0.850012 0
0.0817371 -0.842144 0
0.0356198 -0.88826 0
0.07102 -0.880038 0
0.0919502 -0.799058 0
0.137216 -0.786665 0
0.0817371 -0.842144 0
0.121975 -0.829083 0
0.137216 -0.786665 0
0.181636 -0.769422 0
0.121975 -0.829083 0
0.161461 -0.81091 0
0.0817371 -0.842144 0
0.121975 -0.829083 0
0.07102 -0.880038 0
0.105982 -0.866389 0
0.121975 -0.829083 0
0.161461 -0.81091 0
0.105982 -0.866389 0
0.140291 -0.847399 0
0 -0.891007 0
0.0356198 -0.88826 0
0 -0.92388 0
0.0300251 -0.921032 0
0.0356198 -0.88826 0
0.07102 -0.880038 0
0.0300251 -0.921032 0
0.0598652 -0.912506 0
0 -0.92388 0
0.0300251 -0.921032 0
0 -0.951057 0
0.0242453 -0.948125 0
0.0300251 -0.921032 0
0.0598652 -0.912506 0
0.0242453 -0.948125 0
0.0483412 -0.939348 0
0.07102 -0.880038 0
0.105982 -0.866389 0
0.0598652 -0.912506 0
0.0893361 -0.898354 0
0.105982 -0.866389 0
0.140291 -0.847399 0
0.0893361 -0.898354 0
0.118256 -0.878663 0
0.0598652 -0.912506 0
0.0893361 -0.898354 0
0.0483412 -0.939348 0
0.0721389 -0.92478 0
0.0893361 -0.898354 0
0.118256 -0.878663 0
0.0721389 -0.92478 0
0.0954919 -0.90451 0
0.181636 -0.769422 0
0.224936 -0.747436 0
0.161461 -0.81091 0
0.199952 -0.787738 0
0.224936 -0.747436 0
0.26685 -0.720841 0
0.199952 -0.787738 0
0.23721 -0.75971 0
0.161461 -0.81091 0
0.199952 -0.787738 0
0.140291 -0.847399 0
0.173735 -0.823184 0
0.199952 -0.787738 0
0.23721 -0.75971 0
0.173735 -0.823184 0
0.206108 -0.793894 0
0.26685 -0.720841 0
0.307118 -0.689802 0
0.23721 -0.75971 0
0.273006 -0.726997 0
0.307118 -0.689802 0
0.345492 -0.65451 0
0.273006 -0.726997 0
0.307118 -0.689802 0
0.23721 -0.75971 0
0.273006 -0.726997 0
0.206108 -0.793894 0
0.23721 -0.75971 0
0.273006 -0.726997 0
0.307118 -0.689802 0
0.23721 -0.75971 0
0.26685 -0.720841 0
0.140291 -0.847399 0
0.173735 -0.823184 0
0.118256 -0.878663 0
0.146447 -0.853555 0
0.173735 -0.823184 0
0.206108 -0.793894 0
0.146447 -0.853555 0
0.173735 -0.823184 0
0.118256 -0.878663 0
0.146447 -0.853555 0
0.0954919 -0.90451 0
0.118256 -0.878663 0
0.146447 -0.853555 0
0.173735 -0.823184 0
0.118256 -0.878663 0
0.140291 -0.847399 0
0.206108 -0.793894 0
0.23721 -0.75971 0
0.173735 -0.823184 0
0.199952 -0.787738 0
0.23721 -0.75971 0
0.26685 -0.720841 0
0.199952 -0.787738 0
0.224936 -0.747436 0
0.173735 -0.823184 0
0.199952 -0.787738 0
0.140291 -0.847399 0
0.161462 -0.81091 0
0.199952 -0.787738 0
0.224936 -0.747436 0
0.161462 -0.81091 0
0.181636 -0.769422 0
0 -0.951057 0
0.0242453 -0.948125 0
0 -0.97237 0
0.018316 -0.969373 0
0.0242453 -0.948125 0
0.0483412 -0.939348 0
0.018316 -0.969373 0
0.0365191 -0.960399 0
0 -0.97237 0
0.018316 -0.969373 0
0 -0.987688 0
0.0122738 -0.984644 0
0.018316 -0.969373 0
0.0365191 -0.960399 0
0.0122738 -0.984644 0
0.024472 -0.975529 0
0.0483412 -0.939348 0
0.0721389 -0.92478 0
0.0365191 -0.960399 0
0.0544971 -0.945504 0
0.0721389 -0.92478 0
0.0954919 -0.90451 0
0.0544971 -0.945504 0
0.072139 -0.92478 0
0.0365191 -0.960399 0
0.0544971 -0.945504 0
0.024472 -0.975529 0
0.0365192 -0.960399 0
0.0544971 -0.945504 0
0.072139 -0.92478 0
0.0365192 -0.960399 0
0.0483413 -0.939349 0
0 -0.987688 0
0.0122738 -0.984644 0
0 -0.996917 0
0.00615596 -0.993845 0
0.0122738 -0.984644 0
0.024472 -0.975529 0
0.00615596 -0.993845 0
0.0122739 -0.984644 0
0 -0.996917 0
0.00615596 -0.993845 0
0 -1 0
1.20148e-07 -0.996918 0
0.00615596 -0.993845 0
0.0122739 -0.984644 0
1.20148e-07 -0.996918 0
1.93386e-07 -0.987689 0
0.024472 -0.975529 0
0.0365192 -0.960399 0
0.0122739 -0.984644 0
0.0183162 -0.969373 0
0.0365192 -0.960399 0
0.0483413 -0.939349 0
0.0183162 -0.969373 0
0.0242455 -0.948126 0
0.0122739 -0.984644 0
0.0183162 -0.969373 0
1.93386e-07 -0.987689 0
2.31264e-07 -0.972371 0
0.0183162 -0.969373 0
0.0242455 -0.948126 0
2.31264e-07 -0.972371 0
2.50458e-07 -0.951057 0
0.0954919 -0.90451 0
0.118256 -0.878663 0
0.072139 -0.92478 0
0.0893361 -0.898354 0
0.118256 -0.878663 0
0.140291 -0.847399 0
0.0893361 -0.898354 0
0.105982 -0.866389 0
0.072139 -0.92478 0
0.0893361 -0.898354 0
0.0483413 -0.939349 0
0.0598653 -0.912506 0
0.0893361 -0.898354 0
0.105982 -0.866389 0
0.0598653 -0.912506 0
0.0710202 -0.880038 0
0.140291 -0.847399 0
0.161462 -0.81091 0
0.105982 -0.866389 0
0.121975 -0.829083 0
0.161462 -0.81091 0
0.181636 -0.769422 0
0.121975 -0.829083 0
0.137216 -0.786665 0
0.105982 -0.866389 0
0.121975 -0.829083 0
0.0710202 -0.880038 0
0.0817373 -0.842144 0
0.121975 -0.829083 0
0.137216 -0.786665 0
0.0817373 -0.842144 0
0.0919504 -0.799058 0
0.0483413 -0.939349 0
0.0598653 -0.912506 0
0.0242455 -0.948126 0
0.0300253 -0.921033 0
0.0598653 -0.912506 0
0.0710202 -0.880038 0
0.0300253 -0.921033 0
0.03562 -0.888261 0
0.0242455 -0.948126 0
0.0300253 -0.921033 0
2.50458e-07 -0.951057 0
2.65637e-07 -0.92388 0
0.0300253 -0.921033 0
0.03562 -0.888261 0
2.65637e-07 -0.92388 0
2.86653e-07 -0.891007 0
0.0710202 -0.880038 0
0.0817373 -0.842144 0
0.03562 -0.888261 0
0.0409952 -0.850013 0
0.0817373 -0.842144 0
0.0919504 -0.799058 0
0.0409952 -0.850013 0
0.0461175 -0.806524 0
0.03562 -0.888261 0
0.0409952 -0.850013 0
2.86653e-07 -0.891007 0
3.18796e-07 -0.852641 0
0.0409952 -0.850013 0
0.0461175 -0.806524 0
3.18796e-07 -0.852641 0
3.64261e-07 -0.809018 0
0 -1 0
1.20148e-07 -0.996918 0
0 -0.996917 0
-0.00615572 -0.993845 0
1.20148e-07 -0.996918 0
1.93386e-07 -0.987689 0
-0.00615572 -0.993845 0
-0.0122735 -0.984644 0
0 -0.996917 0
-0.00615572 -0.993845 0
0 -0.987688 0
-0.0122736 -0.984644 0
-0.00615572 -0.993845 0
-0.0122735 -0.984644 0
-0.0122736 -0.984644 0
-0.0244716 -0.975529 0
1.93386e-07 -0.987689 0
2.31264e-07 -0.972371 0
-0.0122735 -0.984644 0
-0.0183157 -0.969373 0
2.31264e-07 -0.972371 0
2.50458e-07 -0.951057 0
-0.0183157 -0.969373 0
-0.024245 -0.948125 0
-0.0122735 -0.984644 0
-0.0183157 -0.969373 0
-0.0244716 -0.975529 0
-0.0365187 -0.960399 0
-0.0183157 -0.969373 0
-0.024245 -0.948125 0
-0.0365187 -0.960399 0
-0.0483407 -0.939348 0
0 -0.987688 0
-0.0122736 -0.984644 0
0 -0.97237 0
-0.0183158 -0.969373 0
-0.0122736 -0.984644 0
-0.0244716 -0.975529 0
-0.0183158 -0.969373 0
-0.0365188 -0.960399 0
0 -0.97237 0
-0.0183158 -0.969373 0
0 -0.951057 0
-0.0242451 -0.948125 0
-0.0183158 -0.969373 0
-0.0365188 -0.960399 0
-0.0242451 -0.948125 0
-0.0483408 -0.939348 0
-0.0244716 -0.975529 0
-0.0365187 -0.960399 0
-0.0365188 -0.960399 0
-0.0544966 -0.945504 0
-0.0365187 -0.960399 0
-0.0483407 -0.939348 0
-0.0544966 -0.945504 0
-0.0721385 -0.924779 0
-0.0365188 -0.960399 0
-0.0544966 -0.945504 0
-0.0483408 -0.939348 0
-0.0721385 -0.924779 0
-0.0544966 -0.945504 0
-0.0721385 -0.924779 0
-0.0721385 -0.924779 0
-0.0954914 -0.904509 0
2.50458e-07 -0.951057 0
2.65637e-07 -0.92388 0
-0.024245 -0.948125 0
-0.0300248 -0.921032 0
2.65637e-07 -0.92388 0
2.86653e-07 -0.891007 0
-0.0300248 -0.921032 0
-0.0356195 -0.888261 0
-0.024245 -0.948125 0
-0.0300248 -0.921032 0
-0.0483407 -0.939348 0
-0.0598647 -0.912506 0
-0.0300248 -0.921032 0
-0.0356195 -0.888261 0
-0.0598647 -0.912506 0
-0.0710196 -0.880037 0
2.86653e-07 -0.891007 0
3.18796e-07 -0.852641 0
-0.0356195 -0.888261 0
-0.0409945 -0.850012 0
3.18796e-07 -0.852641 0
3.64261e-07 -0.809018 0
-0.0409945 -0.850012 0
-0.0461168 -0.806524 0
-0.0356195 -0.888261 0
-0.0409945 -0.850012 0
-0.0710196 -0.880037 0
-0.0817366 -0.842143 0
-0.0409945 -0.850012 0
-0.0461168 -0.806524 0
-0.0817366 -0.842143 0
-0.0919497 -0.799057 0
-0.0483407 -0.939348 0
-0.0598647 -0.912506 0
-0.0721385 -0.924779 0
-0.0893356 -0.898353 0
-0.0598647 -0.912506 0
-0.0710196 -0.880037 0
-0.0893356 -0.898353 0
-0.105982 -0.866388 0
-0.0721385 -0.924779 0
-0.0893356 -0.898353 0
-0.0954914 -0.904509 0
-0.118256 -0.878662 0
-0.0893356 -0.898353 0
-0.105982 -0.866388 0
-0.118256 -0.878662 0
-0.140291 -0.847398 0
-0.0710196 -0.880037 0
-0.0817366 -0.842143 0
-0.105982 -0.866388 0
-0.121975 -0.829082 0
-0.0817366 -0.842143 0
-0.0919497 -0.799057 0
-0.121975 -0.829082 0
-0.137216 -0.786664 0
-0.105982 -0.866388 0
-0.121975 -0.829082 0
-0.140291 -0.847398 0
-0.161461 -0.810909 0
-0.121975 -0.829082 0
-0.137216 -0.786664 0
-0.161461 -0.810909 0
-0.181636 -0.769421 0
0 -0.951057 0
-0.0242451 -0.948125 0
0 -0.92388 0
-0.0300249 -0.921032 0
-0.0242451 -0.948125 0
-0.0483408 -0.939348 0
-0.0300249 -0.921032 0
-0.0598648 -0.912505 0
0 -0.92388 0
-0.0300249 -0.921032 0
0 -0.891007 0
-0.0356196 -0.88826 0
-0.0300249 -0.921032 0
-0.0598648 -0.912505 0
-0.0356196 -0.88826 0
-0.0710197 -0.880037 0
-0.0483408 -0.939348 0
-0.0721385 -0.924779 0
-0.0598648 -0.912505 0
-0.0893356 -0.898353 0
-0.0721385 -0.924779 0
-0.0954914 -0.904509 0
-0.0893356 -0.898353 0
-0.118256 -0.878662 0
-0.0598648 -0.912505 0
-0.0893356 -0.898353 0
-0.0710197 -0.880037 0
-0.105982 -0.866388 0
-0.0893356 -0.898353 0
-0.118256 -0.878662 0
-0.105982 -0.866388 0
-0.140291 -0.847397 0
0 -0.891007 0
-0.0356196 -0.88826 0
0 -0.85264 0
-0.0409947 -0.850012 0
-0.0356196 -0.88826 0
-0.0710197 -0.880037 0
-0.0409947 -0.850012 0
-0.0817367 -0.842143 0
0 -0.85264 0
-0.0409947 -0.850012 0
0 -0.809017 0
-0.046117 -0.806523 0
-0.0409947 -0.850012 0
-0.0817367 -0.842143 0
-0.046117 -0.806523 0
-0.0919498 -0.799056 0
-0.0710197 -0.880037 0
-0.105982 -0.866388 0
-0.0817367 -0.842143 0
-0.121975 -0.829081 0
-0.105982 -0.866388 0
-0.140291 -0.847397 0
-0.121975 -0.829081 0
-0.161461 -0.810909 0
-0.0817367 -0.842143 0
-0.121975 -0.829081 0
-0.0919498 -0.799056 0
-0.137216 -0.786663 0
-0.121975 -0.829081 0
-0.161461 -0.810909 0
-0.137216 -0.786663 0
-0.181636 -0.76942 0
-0.0954914 -0.904509 0
-0.118256 -0.878662 0
-0.118256 -0.878662 0
-0.146447 -0.853553 0
-0.118256 -0.878662 0
-0.140291 -0.847398 0
-0.146447 -0.853553 0
-0.173735 -0.823183 0
-0.118256 -0.878662 0
-0.146447 -0.853553 0
-0.140291 -0.847397 0
-0.173735 -0.823183 0
-0.146447 -0.853553 0
-0.173735 -0.823183 0
-0.173735 -0.823183 0
-0.206107 -0.793892 0
-0.140291 -0.847398 0
-0.161461 -0.810909 0
-0.173735 -0.823183 0
-0.199952 -0.787737 0
-0.161461 -0.810909 0
-0.181636 -0.769421 0
-0.199952 -0.787737 0
-0.224936 -0.747434 0
-0.173735 -0.823183 0
-0.199952 -0.787737 0
-0.206107 -0.793892 0
-0.237209 -0.759708 0
-0.199952 -0.787737 0
-0.224936 -0.747434 0
-0.237209 -0.759708 0
-0.266849 -0.720839 0
-0.140291 -0.847397 0
-0.173735 -0.823183 0
-0.161461 -0.810909 0
-0.199952 -0.787736 0
-0.173735 -0.823183 0
-0.206107 -0.793892 0
-0.199952 -0.787736 0
-0.237209 -0.759708 0
-0.161461 -0.810909 0
-0.199952 -0.787736 0
-0.181636 -0.76942 0
-0.224936 -0.747434 0
-0.199952 -0.787736 0
-0.237209 -0.759708 0
-0.224936 -0.747434 0
-0.266849 -0.720839 0
-0.206107 -0.793892 0
-0.237209 -0.759708 0
-0.237209 -0.759708 0
-0.273005 -0.726995 0
-0.237209 -0.759708 0
-0.266849 -0.720839 0
-0.273005 -0.726995 0
-0.307117 -0.6898 0
-0.237209 -0.759708 0
-0.273005 -0.726995 0
-0.266849 -0.720839 0
-0.307117 -0.6898 0
-0.273005 -0.726995 0
-0.307117 -0.6898 0
-0.307117 -0.6898 0
-0.345492 -0.654508 0
0 -0.809017 0
-0.046117 -0.806523 0
0 -0.760406 0
-0.050955 -0.758062 0
-0.046117 -0.806523 0
-0.0919498 -0.799056 0
-0.050955 -0.758062 0
-0.101596 -0.751044 0
0 -0.760406 0
-0.050955 -0.758062 0
0 -0.707107 0
-0.0554789 -0.704927 0
-0.050955 -0.758062 0
-0.101596 -0.751044 0
-0.0554789 -0.704927 0
-0.110616 -0.6984 0
-0.0919498 -0.799056 0
-0.137216 -0.786663 0
-0.101596 -0.751044 0
-0.151611 -0.739395 0
-0.137216 -0.786663 0
-0.181636 -0.76942 0
-0.151611 -0.739395 0
-0.200691 -0.723188 0
-0.101596 -0.751044 0
-0.151611 -0.739395 0
-0.110616 -0.6984 0
-0.165071 -0.687569 0
-0.151611 -0.739395 0
-0.200691 -0.723188 0
-0.165071 -0.687569 0
-0.218508 -0.672498 0
0 -0.707107 0
-0.0554789 -0.704927 0
0 -0.649448 0
-0.0596607 -0.647446 0
-0.0554789 -0.704927 0
-0.110616 -0.6984 0
-0.0596607 -0.647446 0
-0.118954 -0.641451 0
0 -0.649448 0
-0.0596607 -0.647446 0
0 -0.587785 0
-0.0634747 -0.585973 0
-0.0596607 -0.647446 0
-0.118954 -0.641451 0
-0.0634747 -0.585973 0
-0.126558 -0.580548 0
-0.110616 -0.6984 0
-0.165071 -0.687569 0
-0.118954 -0.641451 0
-0.177513 -0.631503 0
-0.165071 -0.687569 0
-0.218508 -0.672498 0
-0.177513 -0.631503 0
-0.234978 -0.617661 0
-0.118954 -0.641451 0