# vtk DataFile Version 3.0
#This file was generated by the deal.II library on 2026/5/26 at 21:24:49
ASCII
DATASET UNSTRUCTURED_GRID

POINTS 1216 double
0.4 0.4 0
0.5 0.4 0
0.4 0.5 0
0.5 0.5 0
0.5 0.4 0
0.6 0.4 0
0.5 0.5 0
0.6 0.5 0
0.4 0.5 0
0.5 0.5 0
0.4 0.6 0
0.5 0.6 0
0.5 0.5 0
0.6 0.5 0
0.5 0.6 0
0.6 0.6 0
0 0.6 0
0.1 0.6 0
0 0.7 0
0.1 0.7 0
0.1 0.6 0
0.2 0.6 0
0.1 0.7 0
0.2 0.7 0
0 0.7 0
0.1 0.7 0
0 0.8 0
0.1 0.8 0
0.1 0.7 0
0.2 0.7 0
0.1 0.8 0
0.2 0.8 0
0 0.8 0
0.1 0.8 0
0 0.9 0
0.1 0.9 0
0.1 0.8 0
0.2 0.8 0
0.1 0.9 0
0.2 0.9 0
0 0.9 0
0.1 0.9 0
0 1 0
0.1 1 0
0.1 0.9 0
0.2 0.9 0
0.1 1 0
0.2 1 0
0.2 0.6 0
0.3 0.6 0
0.2 0.7 0
0.3 0.7 0
0.3 0.6 0
0.4 0.6 0
0.3 0.7 0
0.4 0.7 0
0.2 0.7 0
0.3 0.7 0
0.2 0.8 0
0.3 0.8 0
0.3 0.7 0
0.4 0.7 0
0.3 0.8 0
0.4 0.8 0
0.4 0.6 0
0.5 0.6 0
0.4 0.7 0
0.5 0.7 0
0.5 0.6 0
0.6 0.6 0
0.5 0.7 0
0.6 0.7 0
0.4 0.7 0
0.5 0.7 0
0.4 0.8 0
0.5 0.8 0
0.5 0.7 0
0.6 0.7 0
0.5 0.8 0
0.6 0.8 0
0.6 0.6 0
0.7 0.6 0
0.6 0.7 0
0.7 0.7 0
0.7 0.6 0
0.8 0.6 0
0.7 0.7 0
0.8 0.7 0
0.6 0.7 0
0.7 0.7 0
0.6 0.8 0
0.7 0.8 0
0.7 0.7 0
0.8 0.7 0
0.7 0.8 0
0.8 0.8 0
0.6 0.8 0
0.7 0.8 0
0.6 0.9 0
0.7 0.9 0
0.7 0.8 0
0.8 0.8 0
0.7 0.9 0
0.8 0.9 0
0.6 0.9 0
0.7 0.9 0
0.6 1 0
0.7 1 0
0.7 0.9 0
0.8 0.9 0
0.7 1 0
0.8 1 0
0.8 0.8 0
0.9 0.8 0
0.8 0.9 0
0.9 0.9 0
0.9 0.8 0
1 0.8 0
0.9 0.9 0
1 0.9 0
0.8 0.9 0
0.9 0.9 0
0.8 1 0
0.9 1 0
0.9 0.9 0
1 0.9 0
0.9 1 0
1 1 0
0.6 0.2 0
0.65 0.2 0
0.6 0.25 0
0.65 0.25 0
0.65 0.2 0
0.7 0.2 0
0.65 0.25 0
0.7 0.25 0
0.6 0.25 0
0.65 0.25 0
0.6 0.3 0
0.65 0.3 0
0.65 0.25 0
0.7 0.25 0
0.65 0.3 0
0.7 0.3 0
0.7 0.2 0
0.75 0.2 0
0.7 0.25 0
0.75 0.25 0
0.75 0.2 0
0.8 0.2 0
0.75 0.25 0
0.8 0.25 0
0.7 0.25 0
0.75 0.25 0
0.7 0.3 0
0.75 0.3 0
0.75 0.25 0
0.8 0.25 0
0.75 0.3 0
0.8 0.3 0
0.6 0.3 0
0.65 0.3 0
0.6 0.35 0
0.65 0.35 0
0.65 0.3 0
0.7 0.3 0
0.65 0.35 0
0.7 0.35 0
0.6 0.35 0
0.65 0.35 0
0.6 0.4 0
0.65 0.4 0
0.65 0.35 0
0.7 0.35 0
0.65 0.4 0
0.7 0.4 0
0.7 0.3 0
0.75 0.3 0
0.7 0.35 0
0.75 0.35 0
0.75 0.3 0
0.8 0.3 0
0.75 0.35 0
0.8 0.35 0
0.7 0.35 0
0.75 0.35 0
0.7 0.4 0
0.75 0.4 0
0.75 0.35 0
0.8 0.35 0
0.75 0.4 0
0.8 0.4 0
0.2 0 0
0.25 0 0
0.2 0.05 0
0.25 0.05 0
0.25 0 0
0.3 0 0
0.25 0.05 0
0.3 0.05 0
0.2 0.05 0
0.25 0.05 0
0.2 0.1 0
0.25 0.1 0
0.25 0.05 0
0.3 0.05 0
0.25 0.1 0
0.3 0.1 0
0.3 0 0
0.35 0 0
0.3 0.05 0
0.35 0.05 0
0.35 0 0
0.4 0 0
0.35 0.05 0
0.4 0.05 0
0.3 0.05 0
0.35 0.05 0
0.3 0.1 0
0.35 0.1 0
0.35 0.05 0
0.4 0.05 0
0.35 0.1 0
0.4 0.1 0
0.2 0.1 0
0.25 0.1 0
0.2 0.15 0
0.25 0.15 0
0.25 0.1 0
0.3 0.1 0
0.25 0.15 0
0.3 0.15 0
0.2 0.15 0
0.25 0.15 0
0.2 0.2 0
0.25 0.2 0
0.25 0.15 0
0.3 0.15 0
0.25 0.2 0
0.3 0.2 0
0.3 0.1 0
0.35 0.1 0
0.3 0.15 0
0.35 0.15 0
0.35 0.1 0
0.4 0.1 0
0.35 0.15 0
0.4 0.15 0
0.3 0.15 0
0.35 0.15 0
0.3 0.2 0
0.35 0.2 0
0.35 0.15 0
0.4 0.15 0
0.35 0.2 0
0.4 0.2 0
0.2 0.2 0
0.25 0.2 0
0.2 0.25 0
0.25 0.25 0
0.25 0.2 0
0.3 0.2 0
0.25 0.25 0
0.3 0.25 0
0.2 0.25 0
0.25 0.25 0
0.2 0.3 0
0.25 0.3 0
0.25 0.25 0
0.3 0.25 0
0.25 0.3 0
0.3 0.3 0
0.3 0.2 0
0.35 0.2 0
0.3 0.25 0
0.35 0.25 0
0.35 0.2 0
0.4 0.2 0
0.35 0.25 0
0.4 0.25 0
0.3 0.25 0
0.35 0.25 0
0.3 0.3 0
0.35 0.3 0
0.35 0.25 0
0.4 0.25 0
0.35 0.3 0
0.4 0.3 0
0.2 0.3 0
0.25 0.3 0
0.2 0.35 0
0.25 0.35 0
0.25 0.3 0
0.3 0.3 0
0.25 0.35 0
0.3 0.35 0
0.2 0.35 0
0.25 0.35 0
0.2 0.4 0
0.25 0.4 0
0.25 0.35 0
0.3 0.35 0
0.25 0.4 0
0.3 0.4 0
0.3 0.3 0
0.35 0.3 0
0.3 0.35 0
0.35 0.35 0
0.35 0.3 0
0.4 0.3 0
0.35 0.35 0
0.4 0.35 0
0.3 0.35 0
0.35 0.35 0
0.3 0.4 0
0.35 0.4 0
0.35 0.35 0
0.4 0.35 0
0.35 0.4 0
0.4 0.4 0
0.2 0.4 0
0.25 0.4 0
0.2 0.45 0
0.25 0.45 0
0.25 0.4 0
0.3 0.4 0
0.25 0.45 0
0.3 0.45 0
0.2 0.45 0
0.25 0.45 0
0.2 0.5 0
0.25 0.5 0
0.25 0.45 0
0.3 0.45 0
0.25 0.5 0
0.3 0.5 0
0.3 0.4 0
0.35 0.4 0
0.3 0.45 0
0.35 0.45 0
0.35 0.4 0
0.4 0.4 0
0.35 0.45 0
0.4 0.45 0
0.3 0.45 0
0.35 0.45 0
0.3 0.5 0
0.35 0.5 0
0.35 0.45 0
0.4 0.45 0
0.35 0.5 0
0.4 0.5 0
0.2 0.5 0
0.25 0.5 0
0.2 0.55 0
0.25 0.55 0
0.25 0.5 0
0.3 0.5 0
0.25 0.55 0
0.3 0.55 0
0.2 0.55 0
0.25 0.55 0
0.2 0.6 0
0.25 0.6 0
0.25 0.55 0
0.3 0.55 0
0.25 0.6 0
0.3 0.6 0
0.3 0.5 0
0.35 0.5 0
0.3 0.55 0
0.35 0.55 0
0.35 0.5 0
0.4 0.5 0
0.35 0.55 0
0.4 0.55 0
0.3 0.55 0
0.35 0.55 0
0.3 0.6 0
0.35 0.6 0
0.35 0.55 0
0.4 0.55 0
0.35 0.6 0
0.4 0.6 0
0.4 0 0
0.45 0 0
0.4 0.05 0
0.45 0.05 0
0.45 0 0
0.5 0 0
0.45 0.05 0
0.5 0.05 0
0.4 0.05 0
0.45 0.05 0
0.4 0.1 0
0.45 0.1 0
0.45 0.05 0
0.5 0.05 0
0.45 0.1 0
0.5 0.1 0
0.5 0 0
0.55 0 0
0.5 0.05 0
0.55 0.05 0
0.55 0 0
0.6 0 0
0.55 0.05 0
0.6 0.05 0
0.5 0.05 0
0.55 0.05 0
0.5 0.1 0
0.55 0.1 0
0.55 0.05 0
0.6 0.05 0
0.55 0.1 0
0.6 0.1 0
0.4 0.1 0
0.45 0.1 0
0.4 0.15 0
0.45 0.15 0
0.45 0.1 0
0.5 0.1 0
0.45 0.15 0
0.5 0.15 0
0.4 0.15 0
0.45 0.15 0
0.4 0.2 0
0.45 0.2 0
0.45 0.15 0
0.5 0.15 0
0.45 0.2 0
0.5 0.2 0
0.5 0.1 0
0.55 0.1 0
0.5 0.15 0
0.55 0.15 0
0.55 0.1 0
0.6 0.1 0
0.55 0.15 0
0.6 0.15 0
0.5 0.15 0
0.55 0.15 0
0.5 0.2 0
0.55 0.2 0
0.55 0.15 0
0.6 0.15 0
0.55 0.2 0
0.6 0.2 0
0.4 0.2 0
0.45 0.2 0
0.4 0.25 0
0.45 0.25 0
0.45 0.2 0
0.5 0.2 0
0.45 0.25 0
0.5 0.25 0
0.4 0.25 0
0.45 0.25 0
0.4 0.3 0
0.45 0.3 0
0.45 0.25 0
0.5 0.25 0
0.45 0.3 0
0.5 0.3 0
0.5 0.2 0
0.55 0.2 0
0.5 0.25 0
0.55 0.25 0
0.55 0.2 0
0.6 0.2 0
0.55 0.25 0
0.6 0.25 0
0.5 0.25 0
0.55 0.25 0
0.5 0.3 0
0.55 0.3 0
0.55 0.25 0
0.6 0.25 0
0.55 0.3 0
0.6 0.3 0
0.4 0.3 0
0.45 0.3 0
0.4 0.35 0
0.45 0.35 0
0.45 0.3 0
0.5 0.3 0
0.45 0.35 0
0.5 0.35 0
0.4 0.35 0
0.45 0.35 0
0.4 0.4 0
0.45 0.4 0
0.45 0.35 0
0.5 0.35 0
0.45 0.4 0
0.5 0.4 0
0.5 0.3 0
0.55 0.3 0
0.5 0.35 0
0.55 0.35 0
0.55 0.3 0
0.6 0.3 0
0.55 0.35 0
0.6 0.35 0
0.5 0.35 0
0.55 0.35 0
0.5 0.4 0
0.55 0.4 0
0.55 0.35 0
0.6 0.35 0
0.55 0.4 0
0.6 0.4 0
0.6 0 0
0.65 0 0
0.6 0.05 0
0.65 0.05 0
0.65 0 0
0.7 0 0
0.65 0.05 0
0.7 0.05 0
0.6 0.05 0
0.65 0.05 0
0.6 0.1 0
0.65 0.1 0
0.65 0.05 0
0.7 0.05 0
0.65 0.1 0
0.7 0.1 0
0.7 0 0
0.75 0 0
0.7 0.05 0
0.75 0.05 0
0.75 0 0
0.8 0 0
0.75 0.05 0
0.8 0.05 0
0.7 0.05 0
0.75 0.05 0
0.7 0.1 0
0.75 0.1 0
0.75 0.05 0
0.8 0.05 0
0.75 0.1 0
0.8 0.1 0
0.6 0.1 0
0.65 0.1 0
0.6 0.15 0
0.65 0.15 0
0.65 0.1 0
0.7 0.1 0
0.65 0.15 0
0.7 0.15 0
0.6 0.15 0
0.65 0.15 0
0.6 0.2 0
0.65 0.2 0
0.65 0.15 0
0.7 0.15 0
0.65 0.2 0
0.7 0.2 0
0.7 0.1 0
0.75 0.1 0
0.7 0.15 0
0.75 0.15 0
0.75 0.1 0
0.8 0.1 0
0.75 0.15 0
0.8 0.15 0
0.7 0.15 0
0.75 0.15 0
0.7 0.2 0
0.75 0.2 0
0.75 0.15 0
0.8 0.15 0
0.75 0.2 0
0.8 0.2 0
0.6 0.4 0
0.65 0.4 0
0.6 0.45 0
0.65 0.45 0
0.65 0.4 0
0.7 0.4 0
0.65 0.45 0
0.7 0.45 0
0.6 0.45 0
0.65 0.45 0
0.6 0.5 0
0.65 0.5 0
0.65 0.45 0
0.7 0.45 0
0.65 0.5 0
0.7 0.5 0
0.7 0.4 0
0.75 0.4 0
0.7 0.45 0
0.75 0.45 0
0.75 0.4 0
0.8 0.4 0
0.75 0.45 0
0.8 0.45 0
0.7 0.45 0
0.75 0.45 0
0.7 0.5 0
0.75 0.5 0
0.75 0.45 0
0.8 0.45 0
0.75 0.5 0
0.8 0.5 0
0.6 0.5 0
0.65 0.5 0
0.6 0.55 0
0.65 0.55 0
0.65 0.5 0
0.7 0.5 0
0.65 0.55 0
0.7 0.55 0
0.6 0.55 0
0.65 0.55 0
0.6 0.6 0
0.65 0.6 0
0.65 0.55 0
0.7 0.55 0
0.65 0.6 0
0.7 0.6 0
0.7 0.5 0
0.75 0.5 0
0.7 0.55 0
0.75 0.55 0
0.75 0.5 0
0.8 0.5 0
0.75 0.55 0
0.8 0.55 0
0.7 0.55 0
0.75 0.55 0
0.7 0.6 0
0.75 0.6 0
0.75 0.55 0
0.8 0.55 0
0.75 0.6 0
0.8 0.6 0
0 0 0
0.05 0 0
0 0.05 0
0.05 0.05 0
0.05 0 0
0.1 0 0
0.05 0.05 0
0.1 0.05 0
0 0.05 0
0.05 0.05 0
0 0.1 0
0.05 0.1 0
0.05 0.05 0
0.1 0.05 0
0.05 0.1 0
0.1 0.1 0
0.1 0 0
0.15 0 0
0.1 0.05 0
0.15 0.05 0
0.15 0 0
0.2 0 0
0.15 0.05 0
0.2 0.05 0
0.1 0.05 0
0.15 0.05 0
0.1 0.1 0
0.15 0.1 0
0.15 0.05 0
0.2 0.05 0
0.15 0.1 0
0.2 0.1 0
0 0.1 0
0.05 0.1 0
0 0.15 0
0.05 0.15 0
0.05 0.1 0
0.1 0.1 0
0.05 0.15 0
0.1 0.15 0
0 0.15 0
0.05 0.15 0
0 0.2 0
0.05 0.2 0
0.05 0.15 0
0.1 0.15 0
0.05 0.2 0
0.1 0.2 0
0.1 0.1 0
0.15 0.1 0
0.1 0.15 0
0.15 0.15 0
0.15 0.1 0
0.2 0.1 0
0.15 0.15 0
0.2 0.15 0
0.1 0.15 0
0.15 0.15 0
0.1 0.2 0
0.15 0.2 0
0.15 0.15 0
0.2 0.15 0
0.15 0.2 0
0.2 0.2 0
0 0.2 0
0.05 0.2 0
0 0.25 0
0.05 0.25 0
0.05 0.2 0
0.1 0.2 0
0.05 0.25 0
0.1 0.25 0
0 0.25 0
0.05 0.25 0
0 0.3 0
0.05 0.3 0
0.05 0.25 0
0.1 0.25 0
0.05 0.3 0
0.1 0.3 0
0.1 0.2 0
0.15 0.2 0
0.1 0.25 0
0.15 0.25 0
0.15 0.2 0
0.2 0.2 0
0.15 0.25 0
0.2 0.25 0
0.1 0.25 0
0.15 0.25 0
0.1 0.3 0
0.15 0.3 0
0.15 0.25 0
0.2 0.25 0
0.15 0.3 0
0.2 0.3 0
0 0.3 0
0.05 0.3 0
0 0.35 0
0.05 0.35 0
0.05 0.3 0
0.1 0.3 0
0.05 0.35 0
0.1 0.35 0
0 0.35 0
0.05 0.35 0
0 0.4 0
0.05 0.4 0
0.05 0.35 0
0.1 0.35 0
0.05 0.4 0
0.1 0.4 0
0.1 0.3 0
0.15 0.3 0
0.1 0.35 0
0.15 0.35 0
0.15 0.3 0
0.2 0.3 0
0.15 0.35 0
0.2 0.35 0
0.1 0.35 0
0.15 0.35 0
0.1 0.4 0
0.15 0.4 0
0.15 0.35 0
0.2 0.35 0
0.15 0.4 0
0.2 0.4 0
0 0.4 0
0.05 0.4 0
0 0.45 0
0.05 0.45 0
0.05 0.4 0
0.1 0.4 0
0.05 0.45 0
0.1 0.45 0
0 0.45 0
0.05 0.45 0
0 0.5 0
0.05 0.5 0
0.05 0.45 0
0.1 0.45 0
0.05 0.5 0
0.1 0.5 0
0.1 0.4 0
0.15 0.4 0
0.1 0.45 0
0.15 0.45 0
0.15 0.4 0
0.2 0.4 0
0.15 0.45 0
0.2 0.45 0
0.1 0.45 0
0.15 0.45 0
0.1 0.5 0
0.15 0.5 0
0.15 0.45 0
0.2 0.45 0
0.15 0.5 0
0.2 0.5 0
0 0.5 0
0.05 0.5 0
0 0.55 0
0.05 0.55 0
0.05 0.5 0
0.1 0.5 0
0.05 0.55 0
0.1 0.55 0
0 0.55 0
0.05 0.55 0
0 0.6 0
0.05 0.6 0
0.05 0.55 0
0.1 0.55 0
0.05 0.6 0
0.1 0.6 0
0.1 0.5 0
0.15 0.5 0
0.1 0.55 0
0.15 0.55 0
0.15 0.5 0
0.2 0.5 0
0.15 0.55 0
0.2 0.55 0
0.1 0.55 0
0.15 0.55 0
0.1 0.6 0
0.15 0.6 0
0.15 0.55 0
0.2 0.55 0
0.15 0.6 0
0.2 0.6 0
0.2 0.8 0
0.25 0.8 0
0.2 0.85 0
0.25 0.85 0
0.25 0.8 0
0.3 0.8 0
0.25 0.85 0
0.3 0.85 0
0.2 0.85 0
0.25 0.85 0
0.2 0.9 0
0.25 0.9 0
0.25 0.85 0
0.3 0.85 0
0.25 0.9 0
0.3 0.9 0
0.3 0.8 0
0.35 0.8 0
0.3 0.85 0
0.35 0.85 0
0.35 0.8 0
0.4 0.8 0
0.35 0.85 0
0.4 0.85 0
0.3 0.85 0
0.35 0.85 0
0.3 0.9 0
0.35 0.9 0
0.35 0.85 0
0.4 0.85 0
0.35 0.9 0
0.4 0.9 0
0.2 0.9 0
0.25 0.9 0
0.2 0.95 0
0.25 0.95 0
0.25 0.9 0
0.3 0.9 0
0.25 0.95 0
0.3 0.95 0
0.2 0.95 0
0.25 0.95 0
0.2 1 0
0.25 1 0
0.25 0.95 0
0.3 0.95 0
0.25 1 0
0.3 1 0
0.3 0.9 0
0.35 0.9 0
0.3 0.95 0
0.35 0.95 0
0.35 0.9 0
0.4 0.9 0
0.35 0.95 0
0.4 0.95 0
0.3 0.95 0
0.35 0.95 0
0.3 1 0
0.35 1 0
0.35 0.95 0
0.4 0.95 0
0.35 1 0
0.4 1 0
0.4 0.8 0
0.45 0.8 0
0.4 0.85 0
0.45 0.85 0
0.45 0.8 0
0.5 0.8 0
0.45 0.85 0
0.5 0.85 0
0.4 0.85 0
0.45 0.85 0
0.4 0.9 0
0.45 0.9 0
0.45 0.85 0
0.5 0.85 0
0.45 0.9 0
0.5 0.9 0
0.5 0.8 0
0.55 0.8 0
0.5 0.85 0
0.55 0.85 0
0.55 0.8 0
0.6 0.8 0
0.55 0.85 0
0.6 0.85 0
0.5 0.85 0
0.55 0.85 0
0.5 0.9 0
0.55 0.9 0
0.55 0.85 0
0.6 0.85 0
0.55 0.9 0
0.6 0.9 0
0.4 0.9 0
0.45 0.9 0
0.4 0.95 0
0.45 0.95 0
0.45 0.9 0
0.5 0.9 0
0.45 0.95 0
0.5 0.95 0
0.4 0.95 0
0.45 0.95 0
0.4 1 0
0.45 1 0
0.45 0.95 0
0.5 0.95 0
0.45 1 0
0.5 1 0
0.5 0.9 0
0.55 0.9 0
0.5 0.95 0
0.55 0.95 0
0.55 0.9 0
0.6 0.9 0
0.55 0.95 0
0.6 0.95 0
0.5 0.95 0
0.55 0.95 0
0.5 1 0
0.55 1 0
0.55 0.95 0
0.6 0.95 0
0.55 1 0
0.6 1 0
0.8 0 0
0.85 0 0
0.8 0.05 0
0.85 0.05 0
0.85 0 0
0.9 0 0
0.85 0.05 0
0.9 0.05 0
0.8 0.05 0
0.85 0.05 0
0.8 0.1 0
0.85 0.1 0
0.85 0.05 0
0.9 0.05 0
0.85 0.1 0
0.9 0.1 0
0.9 0 0
0.95 0 0
0.9 0.05 0
0.95 0.05 0
0.95 0 0
1 0 0
0.95 0.05 0
1 0.05 0
0.9 0.05 0
0.95 0.05 0
0.9 0.1 0
0.95 0.1 0
0.95 0.05 0
1 0.05 0
0.95 0.1 0
1 0.1 0
0.8 0.1 0
0.85 0.1 0
0.8 0.15 0
0.85 0.15 0
0.85 0.1 0
0.9 0.1 0
0.85 0.15 0
0.9 0.15 0
0.8 0.15 0
0.85 0.15 0
0.8 0.2 0
0.85 0.2 0
0.85 0.15 0
0.9 0.15 0
0.85 0.2 0
0.9 0.2 0
0.9 0.1 0
0.95 0.1 0
0.9 0.15 0
0.95 0.15 0
0.95 0.1 0
1 0.1 0
0.95 0.15 0
1 0.15 0
0.9 0.15 0
0.95 0.15 0
0.9 0.2 0
0.95 0.2 0
0.95 0.15 0
1 0.15 0
0.95 0.2 0
1 0.2 0
0.8 0.2 0
0.85 0.2 0
0.8 0.25 0
0.85 0.25 0
0.85 0.2 0
0.9 0.2 0
0.85 0.25 0
0.9 0.25 0
0.8 0.25 0
0.85 0.25 0
0.8 0.3 0
0.85 0.3 0
0.85 0.25 0
0.9 0.25 0
0.85 0.3 0
0.9 0.3 0
0.9 0.2 0
0.95 0.2 0
0.9 0.25 0
0.95 0.25 0
0.95 0.2 0
1 0.2 0
0.95 0.25 0
1 0.25 0
0.9 0.25 0
0.95 0.25 0
0.9 0.3 0
0.95 0.3 0
0.95 0.25 0
1 0.25 0
0.95 0.3 0
1 0.3 0
0.8 0.3 0
0.85 0.3 0
0.8 0.35 0
0.85 0.35 0
0.85 0.3 0
0.9 0.3 0
0.85 0.35 0
0.9 0.35 0
0.8 0.35 0
0.85 0.35 0
0.8 0.4 0
0.85 0.4 0
0.85 0.35 0
0.9 0.35 0
0.85 0.4 0
0.9 0.4 0
0.9 0.3 0
0.95 0.3 0
0.9 0.35 0
0.95 0.35 0
0.95 0.3 0
1 0.3 0
0.95 0.35 0
1 0.35 0
0.9 0.35 0
0.95 0.35 0
0.9 0.4 0
0.95 0.4 0
0.95 0.35 0
1 0.35 0
0.95 0.4 0
1 0.4 0
0.8 0.4 0
0.85 0.4 0
0.8 0.45 0
0.85 0.45 0
0.85 0.4 0
0.9 0.4 0
0.85 0.45 0
0.9 0.45 0
0.8 0.45 0
0.85 0.45 0
0.8 0.5 0
0.85 0.5 0
0.85 0.45 0
0.9 0.45 0
0.85 0.5 0
0.9 0.5 0
0.9 0.4 0
0.95 0.4 0
0.9 0.45 0
0.95 0.45 0
0.95 0.4 0
1 0.4 0
0.95 0.45 0
1 0.45 0
0.9 0.45 0
0.95 0.45 0
0.9 0.5 0
0.95 0.5 0
0.95 0.45 0
1 0.45 0
0.95 0.5 0
1 0.5 0
0.8 0.5 0
0.85 0.5 0
0.8 0.55 0
0.85 0.55 0
0.85 0.5 0
0.9 0.5 0
0.85 0.55 0
0.9 0.55 0
0.8 0.55 0
0.85 0.55 0
0.8 0.6 0
0.85 0.6 0
0.85 0.55 0
0.9 0.55 0
0.85 0.6 0
0.9 0.6 0
0.9 0.5 0
0.95 0.5 0
0.9 0.55 0
0.95 0.55 0
0.95 0.5 0
1 0.5 0
0.95 0.55 0
1 0.55 0
0.9 0.55 0
0.95 0.55 0
0.9 0.6 0
0.95 0.6 0
0.95 0.55 0
1 0.55 0
0.95 0.6 0
1 0.6 0
0.8 0.6 0
0.85 0.6 0
0.8 0.65 0
0.85 0.65 0
0.85 0.6 0
0.9 0.6 0
0.85 0.65 0
0.9 0.65 0
0.8 0.65 0
0.85 0.65 0
0.8 0.7 0
0.85 0.7 0
0.85 0.65 0
0.9 0.65 0
0.85 0.7 0
0.9 0.7 0
0.9 0.6 0
0.95 0.6 0
0.9 0.65 0
0.95 0.65 0
0.95 0.6 0
1 0.6 0
0.95 0.65 0
1 0.65 0
0.9 0.65 0
0.95 0.65 0
0.9 0.7 0
0.95 0.7 0
0.95 0.65 0
1 0.65 0
0.95 0.7 0
1 0.7 0
0.8 0.7 0
0.85 0.7 0
0.8 0.75 0
0.85 0.75 0
0.85 0.7 0
0.9 0.7 0
0.85 0.75 0
0.9 0.75 0
0.8 0.75 0
0.85 0.75 0
0.8 0.8 0
0.85 0.8 0
0.85 0.75 0
0.9 0.75 0
0.85 0.8 0
0.9 0.8 0
0.9 0.7 0
0.95 0.7 0
0.9 0.75 0
0.95 0.75 0
0.95 0.7 0
1 0.7 0
0.95 0.75 0
1 0.75 0
0.9 0.75 0
0.95 0.75 0
0.9 0.8 0
0.95 0.8 0
0.95 0.75 0
1 0.75 0
0.95 0.8 0
1 0.8 0

CELLS 304 1520
4	0	1	3	2
4	4	5	7	6
4	8	9	11	10
4	12	13	15	14
4	16	17	19	18
4	20	21	23	22
4	24	25	27	26
4	28	29	31	30
4	32	33	35	34
4	36	37	39	38
4	40	41	43	42
4	44	45	47	46
4	48	49	51	50
4	52	53	55	54
4	56	57	59	58
4	60	61	63	62
4	64	65	67	66
4	68	69	71	70
4	72	73	75	74
4	76	77	79	78
4	80	81	83	82
4	84	85	87	86
4	88	89	91	90
4	92	93	95	94
4	96	97	99	98
4	100	101	103	102
4	104	105	107	106
4	108	109	111	110
4	112	113	115	114
4	116	117	119	118
4	120	121	123	122
4	124	125	127	126
4	128	129	131	130
4	132	133	135	134
4	136	137	139	138
4	140	141	143	142
4	144	145	147	146
4	148	149	151	150
4	152	153	155	154
4	156	157	159	158
4	160	161	163	162
4	164	165	167	166
4	168	169	171	170
4	172	173	175	174
4	176	177	179	178
4	180	181	183	182
4	184	185	187	186
4	188	189	191	190
4	192	193	195	194
4	196	197	199	198
4	200	201	203	202
4	204	205	207	206
4	208	209	211	210
4	212	213	215	214
4	216	217	219	218
4	220	221	223	222
4	224	225	227	226
4	228	229	231	230
4	232	233	235	234
4	236	237	239	238
4	240	241	243	242
4	244	245	247	246
4	248	249	251	250
4	252	253	255	254
4	256	257	259	258
4	260	261	263	262
4	264	265	267	266
4	268	269	271	270
4	272	273	275	274
4	276	277	279	278
4	280	281	283	282
4	284	285	287	286
4	288	289	291	290
4	292	293	295	294
4	296	297	299	298
4	300	301	303	302
4	304	305	307	306
4	308	309	311	310
4	312	313	315	314
4	316	317	319	318
4	320	321	323	322
4	324	325	327	326
4	328	329	331	330
4	332	333	335	334
4	336	337	339	338
4	340	341	343	342
4	344	345	347	346
4	348	349	351	350
4	352	353	355	354
4	356	357	359	358
4	360	361	363	362
4	364	365	367	366
4	368	369	371	370
4	372	373	375	374
4	376	377	379	378
4	380	381	383	382
4	384	385	387	386
4	388	389	391	390
4	392	393	395	394
4	396	397	399	398
4	400	401	403	402
4	404	405	407	406
4	408	409	411	410
4	412	413	415	414
4	416	417	419	418
4	420	421	423	422
4	424	425	427	426
4	428	429	431	430
4	432	433	435	434
4	436	437	439	438
4	440	441	443	442
4	444	445	447	446
4	448	449	451	450
4	452	453	455	454
4	456	457	459	458
4	460	461	463	462
4	464	465	467	466
4	468	469	471	470
4	472	473	475	474
4	476	477	479	478
4	480	481	483	482
4	484	485	487	486
4	488	489	491	490
4	492	493	495	494
4	496	497	499	498
4	500	501	503	502
4	504	505	507	506
4	508	509	511	510
4	512	513	515	514
4	516	517	519	518
4	520	521	523	522
4	524	525	527	526
4	528	529	531	530
4	532	533	535	534
4	536	537	539	538
4	540	541	543	542
4	544	545	547	546
4	548	549	551	550
4	552	553	555	554
4	556	557	559	558
4	560	561	563	562
4	564	565	567	566
4	568	569	571	570
4	572	573	575	574
4	576	577	579	578
4	580	581	583	582
4	584	585	587	586
4	588	589	591	590
4	592	593	595	594
4	596	597	599	598
4	600	601	603	602
4	604	605	607	606
4	608	609	611	610
4	612	613	615	614
4	616	617	619	618
4	620	621	623	622
4	624	625	627	626
4	628	629	631	630
4	632	633	635	634
4	636	637	639	638
4	640	641	643	642
4	644	645	647	646
4	648	649	651	650
4	652	653	655	654
4	656	657	659	658
4	660	661	663	662
4	664	665	667	666
4	668	669	671	670
4	672	673	675	674
4	676	677	679	678
4	680	681	683	682
4	684	685	687	686
4	688	689	691	690
4	692	693	695	694
4	696	697	699	698
4	700	701	703	702
4	704	705	707	706
4	708	709	711	710
4	712	713	715	714
4	716	717	719	718
4	720	721	723	722
4	724	725	727	726
4	728	729	731	730
4	732	733	735	734
4	736	737	739	738
4	740	741	743	742
4	744	745	747	746
4	748	749	751	750
4	752	753	755	754
4	756	757	759	758
4	760	761	763	762
4	764	765	767	766
4	768	769	771	770
4	772	773	775	774
4	776	777	779	778
4	780	781	783	782
4	784	785	787	786
4	788	789	791	790
4	792	793	795	794
4	796	797	799	798
4	800	801	803	802
4	804	805	807	806
4	808	809	811	810
4	812	813	815	814
4	816	817	819	818
4	820	821	823	822
4	824	825	827	826
4	828	829	831	830
4	832	833	835	834
4	836	837	839	838
4	840	841	843	842
4	844	845	847	846
4	848	849	851	850
4	852	853	855	854
4	856	857	859	858
4	860	861	863	862
4	864	865	867	866
4	868	869	871	870
4	872	873	875	874
4	876	877	879	878
4	880	881	883	882
4	884	885	887	886
4	888	889	891	890
4	892	893	895	894
4	896	897	899	898
4	900	901	903	902
4	904	905	907	906
4	908	909	911	910
4	912	913	915	914
4	916	917	919	918
4	920	921	923	922
4	924	925	927	926
4	928	929	931	930
4	932	933	935	934
4	936	937	939	938
4	940	941	943	942
4	944	945	947	946
4	948	949	951	950
4	952	953	955	954
4	956	957	959	958
4	960	961	963	962
4	964	965	967	966
4	968	969	971	970
4	972	973	975	974
4	976	977	979	978
4	980	981	983	982
4	984	985	987	986
4	988	989	991	990
4	992	993	995	994
4	996	997	999	998
4	1000	1001	1003	1002
4	1004	1005	1007	1006
4	1008	1009	1011	1010
4	1012	1013	1015	1014
4	1016	1017	1019	1018
4	1020	1021	1023	1022
4	1024	1025	1027	1026
4	1028	1029	1031	1030
4	1032	1033	1035	1034
4	1036	1037	1039	1038
4	1040	1041	1043	1042
4	1044	1045	1047	1046
4	1048	1049	1051	1050
4	1052	1053	1055	1054
4	1056	1057	1059	1058
4	1060	1061	1063	1062
4	1064	1065	1067	1066
4	1068	1069	1071	1070
4	1072	1073	1075	1074
4	1076	1077	1079	1078
4	1080	1081	1083	1082
4	1084	1085	1087	1086
4	1088	1089	1091	1090
4	1092	1093	1095	1094
4	1096	1097	1099	1098
4	1100	1101	1103	1102
4	1104	1105	1107	1106
4	1108	1109	1111	1110
4	1112	1113	1115	1114
4	1116	1117	1119	1118
4	1120	1121	1123	1122
4	1124	1125	1127	1126
4	1128	1129	1131	1130
4	1132	1133	1135	1134
4	1136	1137	1139	1138
4	1140	1141	1143	1142
4	1144	1145	1147	1146
4	1148	1149	1151	1150
4	1152	1153	1155	1154
4	1156	1157	1159	1158
4	1160	1161	1163	1162
4	1164	1165	1167	1166
4	1168	1169	1171	1170
4	1172	1173	1175	1174
4	1176	1177	1179	1178
4	1180	1181	1183	1182
4	1184	1185	1187	1186
4	1188	1189	1191	1190
4	1192	1193	1195	1194
4	1196	1197	1199	1198
4	1200	1201	1203	1202
4	1204	1205	1207	1206
4	1208	1209	1211	1210
4	1212	1213	1215	1214

CELL_TYPES 304
 9 9 9 9 9 9 9 9 9 9 9 9 9 9 9 9 9 9 9 9 9 9 9 9 9 9 9 9 9 9 9 9 9 9 9 9 9 9 9 9 9 9 9 9 9 9 9 9 9 9 9 9 9 9 9 9 9 9 9 9 9 9 9 9 9 9 9 9 9 9 9 9 9 9 9 9 9 9 9 9 9 9 9 9 9 9 9 9 9 9 9 9 9 9 9 9 9 9 9 9 9 9 9 9 9 9 9 9 9 9 9 9 9 9 9 9 9 9 9 9 9 9 9 9 9 9 9 9 9 9 9 9 9 9 9 9 9 9 9 9 9 9 9 9 9 9 9 9 9 9 9 9 9 9 9 9 9 9 9 9 9 9 9 9 9 9 9 9 9 9 9 9 9 9 9 9 9 9 9 9 9 9 9 9 9 9 9 9 9 9 9 9 9 9 9 9 9 9 9 9 9 9 9 9 9 9 9 9 9 9 9 9 9 9 9 9 9 9 9 9 9 9 9 9 9 9 9 9 9 9 9 9 9 9 9 9 9 9 9 9 9 9 9 9 9 9 9 9 9 9 9 9 9 9 9 9 9 9 9 9 9 9 9 9 9 9 9 9 9 9 9 9 9 9 9 9 9 9 9 9 9 9 9 9 9 9 9 9 9 9 9 9 9 9 9 9 9 9 9 9 9 9 9 9
POINT_DATA 1216
VECTORS velocity double
0.293827 -0.29412 0
0.308945 -5.8909e-05 0
-0.000165851 -0.309191 0
6.89681e-05 -3.93387e-05 0
0.308945 -5.8909e-05 0
0.29387 0.29382 0
6.89681e-05 -3.93387e-05 0
-2.36536e-05 0.308977 0
-0.000165851 -0.309191 0
6.89681e-05 -3.93387e-05 0
-0.293957 -0.294135 0
-0.309045 3.08132e-05 0
6.89681e-05 -3.93387e-05 0
-2.36536e-05 0.308977 0
-0.309045 3.08132e-05 0
-0.293943 0.294094 0
0 -0.951057 0
-0.0954203 -0.905924 0
0 -0.809017 0
-0.181681 -0.769957 0
-0.0954203 -0.905924 0
-0.181634 -0.77062 0
-0.181681 -0.769957 0
-0.345667 -0.655261 0
0 -0.809017 0
-0.181681 -0.769957 0
0 -0.587785 0
-0.250218 -0.558945 0
-0.181681 -0.769957 0
-0.345667 -0.655261 0
-0.250218 -0.558945 0
-0.47611 -0.475822 0
0 -0.587785 0
-0.250218 -0.558945 0
0 -0.309017 0
-0.294516 -0.293557 0
-0.250218 -0.558945 0
-0.47611 -0.475822 0
-0.294516 -0.293557 0
-0.56075 -0.250221 0
0 -0.309017 0
-0.294516 -0.293557 0
0 -1.22465e-16 0
-0.309017 -1.16471e-16 0
-0.294516 -0.293557 0
-0.56075 -0.250221 0
-0.309017 -1.16471e-16 0
-0.587785 -9.9076e-17 0
-0.181634 -0.77062 0
-0.250016 -0.559639 0
-0.345667 -0.655261 0
-0.475595 -0.475397 0
-0.250016 -0.559639 0
-0.293957 -0.294135 0
-0.475595 -0.475397 0
-0.559173 -0.249855 0
-0.345667 -0.655261 0
-0.475595 -0.475397 0
-0.47611 -0.475822 0
-0.654788 -0.344572 0
-0.475595 -0.475397 0
-0.559173 -0.249855 0
-0.654788 -0.344572 0
-0.769581 -0.180952 0
-0.293957 -0.294135 0
-0.309045 3.08132e-05 0
-0.559173 -0.249855 0
-0.588022 0.000158818 0
-0.309045 3.08132e-05 0
-0.293943 0.294094 0
-0.588022 0.000158818 0
-0.559048 0.250008 0
-0.559173 -0.249855 0
-0.588022 0.000158818 0
-0.769581 -0.180952 0
-0.809201 0.000367151 0
-0.588022 0.000158818 0
-0.559048 0.250008 0
-0.809201 0.000367151 0
-0.770004 0.181523 0
-0.293943 0.294094 0
-0.249888 0.559924 0
-0.559048 0.250008 0
-0.475301 0.475956 0
-0.249888 0.559924 0
-0.181256 0.770158 0
-0.475301 0.475956 0
-0.345156 0.655227 0
-0.559048 0.250008 0
-0.475301 0.475956 0
-0.770004 0.181523 0
-0.655174 0.345861 0
-0.475301 0.475956 0
-0.345156 0.655227 0
-0.655174 0.345861 0
-0.476058 0.476469 0
-0.770004 0.181523 0
-0.655174 0.345861 0
-0.905468 0.0954773 0
-0.769944 0.181822 0
-0.655174 0.345861 0
-0.476058 0.476469 0
-0.769944 0.181822 0
-0.559078 0.250317 0
-0.905468 0.0954773 0
-0.769944 0.181822 0
-0.951057 3.78437e-17 0
-0.809017 7.19829e-17 0
-0.769944 0.181822 0
-0.559078 0.250317 0
-0.809017 7.19829e-17 0
-0.587785 9.9076e-17 0
-0.476058 0.476469 0
-0.250326 0.561367 0
-0.559078 0.250317 0
-0.293658 0.294652 0
-0.250326 0.561367 0
-9.9076e-17 0.587785 0
-0.293658 0.294652 0
-1.16471e-16 0.309017 0
-0.559078 0.250317 0
-0.293658 0.294652 0
-0.587785 9.9076e-17 0
-0.309017 1.16471e-16 0
-0.293658 0.294652 0
-1.16471e-16 0.309017 0
-0.309017 1.16471e-16 0
-1.22465e-16 1.22465e-16 0
0.769236 0.181529 0
0.720677 0.266739 0
0.672341 0.218385 0
0.629894 0.320888 0
0.720677 0.266739 0
0.654371 0.345384 0
0.629894 0.320888 0
0.571937 0.415494 0
0.672341 0.218385 0
0.629894 0.320888 0
0.558889 0.249855 0
0.523611 0.367142 0
0.629894 0.320888 0
0.571937 0.415494 0
0.523611 0.367142 0
0.475428 0.475379 0
0.654371 0.345384 0
0.571953 0.415533 0
0.571937 0.415494 0
0.499897 0.499875 0
0.571953 0.415533 0
0.475451 0.475454 0
0.499897 0.499875 0
0.41555 0.571954 0
0.571937 0.415494 0
0.499897 0.499875 0
0.475428 0.475379 0
0.415539 0.571914 0
0.499897 0.499875 0
0.41555 0.571954 0
0.415539 0.571914 0
0.345422 0.654372 0
0.558889 0.249855 0
0.523611 0.367142 0
0.431725 0.275193 0
0.404435 0.404371 0
0.523611 0.367142 0
0.475428 0.475379 0
0.404435 0.404371 0
0.367204 0.523564 0
0.431725 0.275193 0
0.404435 0.404371 0
0.29387 0.29382 0
0.275267 0.431634 0
0.404435 0.404371 0
0.367204 0.523564 0
0.275267 0.431634 0
0.249968 0.558854 0
0.475428 0.475379 0
0.415539 0.571914 0
0.367204 0.523564 0
0.320951 0.629872 0
0.415539 0.571914 0
0.345422 0.654372 0
0.320951 0.629872 0
0.266797 0.720683 0
0.367204 0.523564 0
0.320951 0.629872 0
0.249968 0.558854 0
0.218466 0.672336 0
0.320951 0.629872 0
0.266797 0.720683 0
0.218466 0.672336 0
0.181601 0.769243 0
0.587785 0 0
0.707107 0 0
0.580452 -0.126545 0
0.698265 -0.110608 0
0.707107 0 0
0.809017 0 0
0.698265 -0.110608 0
0.798891 -0.0919469 0
0.580452 -0.126545 0
0.698265 -0.110608 0
0.558866 -0.249944 0
0.672299 -0.218465 0
0.698265 -0.110608 0
0.798891 -0.0919469 0
0.672299 -0.218465 0
0.769188 -0.181614 0
0.809017 0 0
0.891007 0 0
0.798891 -0.0919469 0
0.879856 -0.0710257 0
0.891007 0 0
0.951057 0 0
0.879856 -0.0710257 0
0.939166 -0.0483516 0
0.798891 -0.0919469 0
0.879856 -0.0710257 0
0.769188 -0.181614 0
0.847147 -0.140291 0
0.879856 -0.0710257 0
0.939166 -0.0483516 0
0.847147 -0.140291 0
0.904255 -0.0955112 0
0.558866 -0.249944 0
0.672299 -0.218465 0
0.523523 -0.367178 0
0.629798 -0.320942 0
0.672299 -0.218465 0
0.769188 -0.181614 0
0.629798 -0.320942 0
0.720579 -0.266809 0
0.523523 -0.367178 0
0.629798 -0.320942 0
0.475301 -0.475375 0
0.571811 -0.415527 0
0.629798 -0.320942 0
0.720579 -0.266809 0
0.571811 -0.415527 0
0.654254 -0.345446 0
0.769188 -0.181614 0
0.847147 -0.140291 0
0.720579 -0.266809 0
0.793625 -0.206104 0
0.847147 -0.140291 0
0.904255 -0.0955112 0
0.793625 -0.206104 0
0.847134 -0.140319 0
0.720579 -0.266809 0
0.793625 -0.206104 0
0.654254 -0.345446 0
0.72059 -0.26685 0
0.793625 -0.206104 0
0.847134 -0.140319 0
0.72059 -0.26685 0
0.769184 -0.181677 0
0.475301 -0.475375 0
0.571811 -0.415527 0
0.415396 -0.571883 0
0.499767 -0.499895 0
0.571811 -0.415527 0
0.654254 -0.345446 0
0.499767 -0.499895 0
0.571838 -0.415588 0
0.415396 -0.571883 0
0.499767 -0.499895 0
0.345278 -0.654326 0
0.415426 -0.571964 0
0.499767 -0.499895 0
0.571838 -0.415588 0
0.415426 -0.571964 0
0.475344 -0.4755 0
0.654254 -0.345446 0
0.72059 -0.26685 0
0.571838 -0.415588 0
0.629827 -0.321031 0
0.72059 -0.26685 0
0.769184 -0.181677 0
0.629827 -0.321031 0
0.672309 -0.218571 0
0.571838 -0.415588 0
0.629827 -0.321031 0
0.475344 -0.4755 0
0.523552 -0.367312 0
0.629827 -0.321031 0
0.672309 -0.218571 0
0.523552 -0.367312 0
0.55888 -0.250093 0
0.345278 -0.654326 0
0.415426 -0.571964 0
0.266664 -0.720672 0
0.320854 -0.629953 0
0.415426 -0.571964 0
0.475344 -0.4755 0
0.320854 -0.629953 0
0.367135 -0.523703 0
0.266664 -0.720672 0
0.320854 -0.629953 0
0.181483 -0.76928 0
0.218372 -0.672427 0
0.320854 -0.629953 0
0.367135 -0.523703 0
0.218372 -0.672427 0
0.24988 -0.559007 0
0.475344 -0.4755 0
0.523552 -0.367312 0
0.367135 -0.523703 0
0.404371 -0.404551 0
0.523552 -0.367312 0
0.55888 -0.250093 0
0.404371 -0.404551 0
0.431681 -0.275487 0
0.367135 -0.523703 0
0.404371 -0.404551 0
0.24988 -0.559007 0
0.275203 -0.431817 0
0.404371 -0.404551 0
0.431681 -0.275487 0
0.275203 -0.431817 0
0.293827 -0.29412 0
0.181483 -0.76928 0
0.218372 -0.672427 0
0.0918366 -0.798956 0
0.110526 -0.698344 0
0.218372 -0.672427 0
0.24988 -0.559007 0
0.110526 -0.698344 0
0.126489 -0.580535 0
0.0918366 -0.798956 0
0.110526 -0.698344 0
-9.52874e-05 -0.808997 0
-8.11844e-05 -0.707075 0
0.110526 -0.698344 0
0.126489 -0.580535 0
-8.11844e-05 -0.707075 0
-0.000100593 -0.587792 0
0.24988 -0.559007 0
0.275203 -0.431817 0
0.126489 -0.580535 0
0.139346 -0.448427 0
0.275203 -0.431817 0
0.293827 -0.29412 0
0.139346 -0.448427 0
0.148707 -0.305367 0
0.126489 -0.580535 0
0.139346 -0.448427 0
-0.000100593 -0.587792 0
-0.000201036 -0.454077 0
0.139346 -0.448427 0
0.148707 -0.305367 0
-0.000201036 -0.454077 0
-0.000165851 -0.309191 0
-9.52874e-05 -0.808997 0
-8.11844e-05 -0.707075 0
-0.092005 -0.799655 0
-0.110591 -0.698026 0
-8.11844e-05 -0.707075 0
-0.000100593 -0.587792 0
-0.110591 -0.698026 0
-0.126552 -0.580873 0
-0.092005 -0.799655 0
-0.110591 -0.698026 0
-0.181634 -0.77062 0
-0.218467 -0.671845 0
-0.110591 -0.698026 0
-0.126552 -0.580873 0
-0.218467 -0.671845 0
-0.250016 -0.559639 0
-0.000100593 -0.587792 0
-0.000201036 -0.454077 0
-0.126552 -0.580873 0
-0.139314 -0.44819 0
-0.000201036 -0.454077 0
-0.000165851 -0.309191 0
-0.139314 -0.44819 0
-0.148842 -0.305444 0
-0.126552 -0.580873 0
-0.139314 -0.44819 0
-0.250016 -0.559639 0
-0.275422 -0.431459 0
-0.139314 -0.44819 0
-0.148842 -0.305444 0
-0.275422 -0.431459 0
-0.293957 -0.294135 0
0.951057 0 0
0.987688 0 0
0.939166 -0.0483516 0
0.975359 -0.024487 0
0.987688 0 0
1 0 0
0.975359 -0.024487 0
0.987539 -1.6886e-05 0
0.939166 -0.0483516 0
0.975359 -0.024487 0
0.904255 -0.0955112 0
0.939103 -0.0483733 0
0.975359 -0.024487 0
0.987539 -1.6886e-05 0
0.939103 -0.0483733 0
0.95083 -4.32293e-05 0
1 0 0
0.987688 0 0
0.987539 -1.6886e-05 0
0.975405 0.0244551 0
0.987688 0 0
0.951057 0 0
0.975405 0.0244551 0
0.939253 0.0483256 0
0.987539 -1.6886e-05 0
0.975405 0.0244551 0
0.95083 -4.32293e-05 0
0.939147 0.0482943 0
0.975405 0.0244551 0
0.939253 0.0483256 0
0.939147 0.0482943 0
0.90434 0.0954428 0
0.904255 -0.0955112 0
0.939103 -0.0483733 0
0.847134 -0.140319 0
0.879782 -0.0710654 0
0.939103 -0.0483733 0
0.95083 -4.32293e-05 0
0.879782 -0.0710654 0
0.890768 -6.57777e-05 0
0.847134 -0.140319 0
0.879782 -0.0710654 0
0.769184 -0.181677 0
0.798828 -0.0920037 0
0.879782 -0.0710654 0
0.890768 -6.57777e-05 0
0.798828 -0.0920037 0
0.808803 -8.49901e-05 0
0.95083 -4.32293e-05 0
0.939147 0.0482943 0
0.890768 -6.57777e-05 0
0.879817 0.0709476 0
0.939147 0.0482943 0
0.90434 0.0954428 0
0.879817 0.0709476 0
0.847204 0.140209 0
0.890768 -6.57777e-05 0
0.879817 0.0709476 0
0.808803 -8.49901e-05 0
0.798853 0.0918628 0
0.879817 0.0709476 0
0.847204 0.140209 0
0.798853 0.0918628 0
0.769236 0.181529 0
0.769184 -0.181677 0
0.798828 -0.0920037 0
0.672309 -0.218571 0
0.698212 -0.110667 0
0.798828 -0.0920037 0
0.808803 -8.49901e-05 0
0.698212 -0.110667 0
0.706931 -0.000101685 0
0.672309 -0.218571 0
0.698212 -0.110667 0
0.55888 -0.250093 0
0.580391 -0.126585 0
0.698212 -0.110667 0
0.706931 -0.000101685 0
0.580391 -0.126585 0
0.587647 -0.000124723 0
0.808803 -8.49901e-05 0
0.798853 0.0918628 0
0.706931 -0.000101685 0
0.698225 0.110525 0
0.798853 0.0918628 0
0.769236 0.181529 0
0.698225 0.110525 0
0.672341 0.218385 0
0.706931 -0.000101685 0
0.698225 0.110525 0
0.587647 -0.000124723 0
0.580393 0.126482 0
0.698225 0.110525 0
0.672341 0.218385 0
0.580393 0.126482 0
0.558889 0.249855 0
0.55888 -0.250093 0
0.580391 -0.126585 0
0.431681 -0.275487 0
0.448267 -0.139375 0
0.580391 -0.126585 0
0.587647 -0.000124723 0
0.448267 -0.139375 0
0.453881 -0.00011023 0
0.431681 -0.275487 0
0.448267 -0.139375 0
0.293827 -0.29412 0
0.305149 -0.148742 0
0.448267 -0.139375 0
0.453881 -0.00011023 0
0.305149 -0.148742 0
0.308945 -5.8909e-05 0
0.587647 -0.000124723 0
0.580393 0.126482 0
0.453881 -0.00011023 0
0.448247 0.139277 0
0.580393 0.126482 0
0.558889 0.249855 0
0.448247 0.139277 0
0.431725 0.275193 0