# vtk DataFile Version 3.0
#This file was generated by the deal.II library on 2026/5/26 at 21:24:58
ASCII
DATASET UNSTRUCTURED_GRID

POINTS 2752 double
0.6 0.2 0
0.65 0.2 0
0.6 0.25 0
0.65 0.25 0
0.65 0.2 0
0.7 0.2 0
0.65 0.25 0
0.7 0.25 0
0.6 0.25 0
0.65 0.25 0
0.6 0.3 0
0.65 0.3 0
0.65 0.25 0
0.7 0.25 0
0.65 0.3 0
0.7 0.3 0
0.7 0.2 0
0.75 0.2 0
0.7 0.25 0
0.75 0.25 0
0.75 0.2 0
0.8 0.2 0
0.75 0.25 0
0.8 0.25 0
0.7 0.25 0
0.75 0.25 0
0.7 0.3 0
0.75 0.3 0
0.75 0.25 0
0.8 0.25 0
0.75 0.3 0
0.8 0.3 0
0.6 0.3 0
0.65 0.3 0
0.6 0.35 0
0.65 0.35 0
0.65 0.3 0
0.7 0.3 0
0.65 0.35 0
0.7 0.35 0
0.6 0.35 0
0.65 0.35 0
0.6 0.4 0
0.65 0.4 0
0.65 0.35 0
0.7 0.35 0
0.65 0.4 0
0.7 0.4 0
0.7 0.3 0
0.75 0.3 0
0.7 0.35 0
0.75 0.35 0
0.75 0.3 0
0.8 0.3 0
0.75 0.35 0
0.8 0.35 0
0.7 0.35 0
0.75 0.35 0
0.7 0.4 0
0.75 0.4 0
0.75 0.35 0
0.8 0.35 0
0.75 0.4 0
0.8 0.4 0
0.2 0 0
0.25 0 0
0.2 0.05 0
0.25 0.05 0
0.25 0 0
0.3 0 0
0.25 0.05 0
0.3 0.05 0
0.2 0.05 0
0.25 0.05 0
0.2 0.1 0
0.25 0.1 0
0.25 0.05 0
0.3 0.05 0
0.25 0.1 0
0.3 0.1 0
0.3 0 0
0.35 0 0
0.3 0.05 0
0.35 0.05 0
0.35 0 0
0.4 0 0
0.35 0.05 0
0.4 0.05 0
0.3 0.05 0
0.35 0.05 0
0.3 0.1 0
0.35 0.1 0
0.35 0.05 0
0.4 0.05 0
0.35 0.1 0
0.4 0.1 0
0.2 0.1 0
0.25 0.1 0
0.2 0.15 0
0.25 0.15 0
0.25 0.1 0
0.3 0.1 0
0.25 0.15 0
0.3 0.15 0
0.2 0.15 0
0.25 0.15 0
0.2 0.2 0
0.25 0.2 0
0.25 0.15 0
0.3 0.15 0
0.25 0.2 0
0.3 0.2 0
0.3 0.1 0
0.35 0.1 0
0.3 0.15 0
0.35 0.15 0
0.35 0.1 0
0.4 0.1 0
0.35 0.15 0
0.4 0.15 0
0.3 0.15 0
0.35 0.15 0
0.3 0.2 0
0.35 0.2 0
0.35 0.15 0
0.4 0.15 0
0.35 0.2 0
0.4 0.2 0
0.2 0.2 0
0.25 0.2 0
0.2 0.25 0
0.25 0.25 0
0.25 0.2 0
0.3 0.2 0
0.25 0.25 0
0.3 0.25 0
0.2 0.25 0
0.25 0.25 0
0.2 0.3 0
0.25 0.3 0
0.25 0.25 0
0.3 0.25 0
0.25 0.3 0
0.3 0.3 0
0.3 0.2 0
0.35 0.2 0
0.3 0.25 0
0.35 0.25 0
0.35 0.2 0
0.4 0.2 0
0.35 0.25 0
0.4 0.25 0
0.3 0.25 0
0.35 0.25 0
0.3 0.3 0
0.35 0.3 0
0.35 0.25 0
0.4 0.25 0
0.35 0.3 0
0.4 0.3 0
0.2 0.3 0
0.25 0.3 0
0.2 0.35 0
0.25 0.35 0
0.25 0.3 0
0.3 0.3 0
0.25 0.35 0
0.3 0.35 0
0.2 0.35 0
0.25 0.35 0
0.2 0.4 0
0.25 0.4 0
0.25 0.35 0
0.3 0.35 0
0.25 0.4 0
0.3 0.4 0
0.3 0.3 0
0.35 0.3 0
0.3 0.35 0
0.35 0.35 0
0.35 0.3 0
0.4 0.3 0
0.35 0.35 0
0.4 0.35 0
0.3 0.35 0
0.35 0.35 0
0.3 0.4 0
0.35 0.4 0
0.35 0.35 0
0.4 0.35 0
0.35 0.4 0
0.4 0.4 0
0.2 0.4 0
0.25 0.4 0
0.2 0.45 0
0.25 0.45 0
0.25 0.4 0
0.3 0.4 0
0.25 0.45 0
0.3 0.45 0
0.2 0.45 0
0.25 0.45 0
0.2 0.5 0
0.25 0.5 0
0.25 0.45 0
0.3 0.45 0
0.25 0.5 0
0.3 0.5 0
0.4 0 0
0.45 0 0
0.4 0.05 0
0.45 0.05 0
0.45 0 0
0.5 0 0
0.45 0.05 0
0.5 0.05 0
0.4 0.05 0
0.45 0.05 0
0.4 0.1 0
0.45 0.1 0
0.45 0.05 0
0.5 0.05 0
0.45 0.1 0
0.5 0.1 0
0.5 0 0
0.55 0 0
0.5 0.05 0
0.55 0.05 0
0.55 0 0
0.6 0 0
0.55 0.05 0
0.6 0.05 0
0.5 0.05 0
0.55 0.05 0
0.5 0.1 0
0.55 0.1 0
0.55 0.05 0
0.6 0.05 0
0.55 0.1 0
0.6 0.1 0
0.4 0.1 0
0.45 0.1 0
0.4 0.15 0
0.45 0.15 0
0.45 0.1 0
0.5 0.1 0
0.45 0.15 0
0.5 0.15 0
0.4 0.15 0
0.45 0.15 0
0.4 0.2 0
0.45 0.2 0
0.45 0.15 0
0.5 0.15 0
0.45 0.2 0
0.5 0.2 0
0.5 0.1 0
0.55 0.1 0
0.5 0.15 0
0.55 0.15 0
0.55 0.1 0
0.6 0.1 0
0.55 0.15 0
0.6 0.15 0
0.5 0.15 0
0.55 0.15 0
0.5 0.2 0
0.55 0.2 0
0.55 0.15 0
0.6 0.15 0
0.55 0.2 0
0.6 0.2 0
0.4 0.2 0
0.45 0.2 0
0.4 0.25 0
0.45 0.25 0
0.45 0.2 0
0.5 0.2 0
0.45 0.25 0
0.5 0.25 0
0.4 0.25 0
0.45 0.25 0
0.4 0.3 0
0.45 0.3 0
0.45 0.25 0
0.5 0.25 0
0.45 0.3 0
0.5 0.3 0
0.5 0.2 0
0.55 0.2 0
0.5 0.25 0
0.55 0.25 0
0.55 0.2 0
0.6 0.2 0
0.55 0.25 0
0.6 0.25 0
0.5 0.25 0
0.55 0.25 0
0.5 0.3 0
0.55 0.3 0
0.55 0.25 0
0.6 0.25 0
0.55 0.3 0
0.6 0.3 0
0.6 0 0
0.65 0 0
0.6 0.05 0
0.65 0.05 0
0.65 0 0
0.7 0 0
0.65 0.05 0
0.7 0.05 0
0.6 0.05 0
0.65 0.05 0
0.6 0.1 0
0.65 0.1 0
0.65 0.05 0
0.7 0.05 0
0.65 0.1 0
0.7 0.1 0
0.7 0 0
0.75 0 0
0.7 0.05 0
0.75 0.05 0
0.75 0 0
0.8 0 0
0.75 0.05 0
0.8 0.05 0
0.7 0.05 0
0.75 0.05 0
0.7 0.1 0
0.75 0.1 0
0.75 0.05 0
0.8 0.05 0
0.75 0.1 0
0.8 0.1 0
0.6 0.1 0
0.65 0.1 0
0.6 0.15 0
0.65 0.15 0
0.65 0.1 0
0.7 0.1 0
0.65 0.15 0
0.7 0.15 0
0.6 0.15 0
0.65 0.15 0
0.6 0.2 0
0.65 0.2 0
0.65 0.15 0
0.7 0.15 0
0.65 0.2 0
0.7 0.2 0
0.7 0.1 0
0.75 0.1 0
0.7 0.15 0
0.75 0.15 0
0.75 0.1 0
0.8 0.1 0
0.75 0.15 0
0.8 0.15 0
0.7 0.15 0
0.75 0.15 0
0.7 0.2 0
0.75 0.2 0
0.75 0.15 0
0.8 0.15 0
0.75 0.2 0
0.8 0.2 0
0.7 0.4 0
0.75 0.4 0
0.7 0.45 0
0.75 0.45 0
0.75 0.4 0
0.8 0.4 0
0.75 0.45 0
0.8 0.45 0
0.7 0.45 0
0.75 0.45 0
0.7 0.5 0
0.75 0.5 0
0.75 0.45 0
0.8 0.45 0
0.75 0.5 0
0.8 0.5 0
0 0 0
0.05 0 0
0 0.05 0
0.05 0.05 0
0.05 0 0
0.1 0 0
0.05 0.05 0
0.1 0.05 0
0 0.05 0
0.05 0.05 0
0 0.1 0
0.05 0.1 0
0.05 0.05 0
0.1 0.05 0
0.05 0.1 0
0.1 0.1 0
0.1 0 0
0.15 0 0
0.1 0.05 0
0.15 0.05 0
0.15 0 0
0.2 0 0
0.15 0.05 0
0.2 0.05 0
0.1 0.05 0
0.15 0.05 0
0.1 0.1 0
0.15 0.1 0
0.15 0.05 0
0.2 0.05 0
0.15 0.1 0
0.2 0.1 0
0 0.1 0
0.05 0.1 0
0 0.15 0
0.05 0.15 0
0.05 0.1 0
0.1 0.1 0
0.05 0.15 0
0.1 0.15 0
0 0.15 0
0.05 0.15 0
0 0.2 0
0.05 0.2 0
0.05 0.15 0
0.1 0.15 0
0.05 0.2 0
0.1 0.2 0
0.1 0.1 0
0.15 0.1 0
0.1 0.15 0
0.15 0.15 0
0.15 0.1 0
0.2 0.1 0
0.15 0.15 0
0.2 0.15 0
0.1 0.15 0
0.15 0.15 0
0.1 0.2 0
0.15 0.2 0
0.15 0.15 0
0.2 0.15 0
0.15 0.2 0
0.2 0.2 0
0 0.2 0
0.05 0.2 0
0 0.25 0
0.05 0.25 0
0.05 0.2 0
0.1 0.2 0
0.05 0.25 0
0.1 0.25 0
0 0.25 0
0.05 0.25 0
0 0.3 0
0.05 0.3 0
0.05 0.25 0
0.1 0.25 0
0.05 0.3 0
0.1 0.3 0
0.1 0.2 0
0.15 0.2 0
0.1 0.25 0
0.15 0.25 0
0.15 0.2 0
0.2 0.2 0
0.15 0.25 0
0.2 0.25 0
0.1 0.25 0
0.15 0.25 0
0.1 0.3 0
0.15 0.3 0
0.15 0.25 0
0.2 0.25 0
0.15 0.3 0
0.2 0.3 0
0 0.3 0
0.05 0.3 0
0 0.35 0
0.05 0.35 0
0.05 0.3 0
0.1 0.3 0
0.05 0.35 0
0.1 0.35 0
0 0.35 0
0.05 0.35 0
0 0.4 0
0.05 0.4 0
0.05 0.35 0
0.1 0.35 0
0.05 0.4 0
0.1 0.4 0
0.1 0.3 0
0.15 0.3 0
0.1 0.35 0
0.15 0.35 0
0.15 0.3 0
0.2 0.3 0
0.15 0.35 0
0.2 0.35 0
0.1 0.35 0
0.15 0.35 0
0.1 0.4 0
0.15 0.4 0
0.15 0.35 0
0.2 0.35 0
0.15 0.4 0
0.2 0.4 0
0.4 0.9 0
0.45 0.9 0
0.4 0.95 0
0.45 0.95 0
0.45 0.9 0
0.5 0.9 0
0.45 0.95 0
0.5 0.95 0
0.4 0.95 0
0.45 0.95 0
0.4 1 0
0.45 1 0
0.45 0.95 0
0.5 0.95 0
0.45 1 0
0.5 1 0
0.8 0 0
0.85 0 0
0.8 0.05 0
0.85 0.05 0
0.85 0 0
0.9 0 0
0.85 0.05 0
0.9 0.05 0
0.8 0.05 0
0.85 0.05 0
0.8 0.1 0
0.85 0.1 0
0.85 0.05 0
0.9 0.05 0
0.85 0.1 0
0.9 0.1 0
0.9 0 0
0.95 0 0
0.9 0.05 0
0.95 0.05 0
0.95 0 0
1 0 0
0.95 0.05 0
1 0.05 0
0.9 0.05 0
0.95 0.05 0
0.9 0.1 0
0.95 0.1 0
0.95 0.05 0
1 0.05 0
0.95 0.1 0
1 0.1 0
0.8 0.1 0
0.85 0.1 0
0.8 0.15 0
0.85 0.15 0
0.85 0.1 0
0.9 0.1 0
0.85 0.15 0
0.9 0.15 0
0.8 0.15 0
0.85 0.15 0
0.8 0.2 0
0.85 0.2 0
0.85 0.15 0
0.9 0.15 0
0.85 0.2 0
0.9 0.2 0
0.9 0.1 0
0.95 0.1 0
0.9 0.15 0
0.95 0.15 0
0.95 0.1 0
1 0.1 0
0.95 0.15 0
1 0.15 0
0.9 0.15 0
0.95 0.15 0
0.9 0.2 0
0.95 0.2 0
0.95 0.15 0
1 0.15 0
0.95 0.2 0
1 0.2 0
0.8 0.2 0
0.85 0.2 0
0.8 0.25 0
0.85 0.25 0
0.85 0.2 0
0.9 0.2 0
0.85 0.25 0
0.9 0.25 0
0.8 0.25 0
0.85 0.25 0
0.8 0.3 0
0.85 0.3 0
0.85 0.25 0
0.9 0.25 0
0.85 0.3 0
0.9 0.3 0
0.9 0.2 0
0.95 0.2 0
0.9 0.25 0
0.95 0.25 0
0.95 0.2 0
1 0.2 0
0.95 0.25 0
1 0.25 0
0.9 0.25 0
0.95 0.25 0
0.9 0.3 0
0.95 0.3 0
0.95 0.25 0
1 0.25 0
0.95 0.3 0
1 0.3 0
0.8 0.3 0
0.85 0.3 0
0.8 0.35 0
0.85 0.35 0
0.85 0.3 0
0.9 0.3 0
0.85 0.35 0
0.9 0.35 0
0.8 0.35 0
0.85 0.35 0
0.8 0.4 0
0.85 0.4 0
0.85 0.35 0
0.9 0.35 0
0.85 0.4 0
0.9 0.4 0
0.9 0.3 0
0.95 0.3 0
0.9 0.35 0
0.95 0.35 0
0.95 0.3 0
1 0.3 0
0.95 0.35 0
1 0.35 0
0.9 0.35 0
0.95 0.35 0
0.9 0.4 0
0.95 0.4 0
0.95 0.35 0
1 0.35 0
0.95 0.4 0
1 0.4 0
0.8 0.4 0
0.85 0.4 0
0.8 0.45 0
0.85 0.45 0
0.85 0.4 0
0.9 0.4 0
0.85 0.45 0
0.9 0.45 0
0.8 0.45 0
0.85 0.45 0
0.8 0.5 0
0.85 0.5 0
0.85 0.45 0
0.9 0.45 0
0.85 0.5 0
0.9 0.5 0
0.9 0.4 0
0.95 0.4 0
0.9 0.45 0
0.95 0.45 0
0.95 0.4 0
1 0.4 0
0.95 0.45 0
1 0.45 0
0.9 0.45 0
0.95 0.45 0
0.9 0.5 0
0.95 0.5 0
0.95 0.45 0
1 0.45 0
0.95 0.5 0
1 0.5 0
0.9 0.5 0
0.95 0.5 0
0.9 0.55 0
0.95 0.55 0
0.95 0.5 0
1 0.5 0
0.95 0.55 0
1 0.55 0
0.9 0.55 0
0.95 0.55 0
0.9 0.6 0
0.95 0.6 0
0.95 0.55 0
1 0.55 0
0.95 0.6 0
1 0.6 0
0.4 0.4 0
0.45 0.4 0
0.4 0.45 0
0.45 0.45 0
0.45 0.4 0
0.5 0.4 0
0.45 0.45 0
0.5 0.45 0
0.4 0.45 0
0.45 0.45 0
0.4 0.5 0
0.45 0.5 0
0.45 0.45 0
0.5 0.45 0
0.45 0.5 0
0.5 0.5 0
0.5 0.4 0
0.55 0.4 0
0.5 0.45 0
0.55 0.45 0
0.55 0.4 0
0.6 0.4 0
0.55 0.45 0
0.6 0.45 0
0.5 0.45 0
0.55 0.45 0
0.5 0.5 0
0.55 0.5 0
0.55 0.45 0
0.6 0.45 0
0.55 0.5 0
0.6 0.5 0
0.4 0.5 0
0.45 0.5 0
0.4 0.55 0
0.45 0.55 0
0.45 0.5 0
0.5 0.5 0
0.45 0.55 0
0.5 0.55 0
0.4 0.55 0
0.45 0.55 0
0.4 0.6 0
0.45 0.6 0
0.45 0.55 0
0.5 0.55 0
0.45 0.6 0
0.5 0.6 0
0.5 0.5 0
0.55 0.5 0
0.5 0.55 0
0.55 0.55 0
0.55 0.5 0
0.6 0.5 0
0.55 0.55 0
0.6 0.55 0
0.5 0.55 0
0.55 0.55 0
0.5 0.6 0
0.55 0.6 0
0.55 0.55 0
0.6 0.55 0
0.55 0.6 0
0.6 0.6 0
0 0.6 0
0.05 0.6 0
0 0.65 0
0.05 0.65 0
0.05 0.6 0
0.1 0.6 0
0.05 0.65 0
0.1 0.65 0
0 0.65 0
0.05 0.65 0
0 0.7 0
0.05 0.7 0
0.05 0.65 0
0.1 0.65 0
0.05 0.7 0
0.1 0.7 0
0.1 0.6 0
0.15 0.6 0
0.1 0.65 0
0.15 0.65 0
0.15 0.6 0
0.2 0.6 0
0.15 0.65 0
0.2 0.65 0
0.1 0.65 0
0.15 0.65 0
0.1 0.7 0
0.15 0.7 0
0.15 0.65 0
0.2 0.65 0
0.15 0.7 0
0.2 0.7 0
0 0.7 0
0.05 0.7 0
0 0.75 0
0.05 0.75 0
0.05 0.7 0
0.1 0.7 0
0.05 0.75 0
0.1 0.75 0
0 0.75 0
0.05 0.75 0
0 0.8 0
0.05 0.8 0
0.05 0.75 0
0.1 0.75 0
0.05 0.8 0
0.1 0.8 0
0.1 0.7 0
0.15 0.7 0
0.1 0.75 0
0.15 0.75 0
0.15 0.7 0
0.2 0.7 0
0.15 0.75 0
0.2 0.75 0
0.1 0.75 0
0.15 0.75 0
0.1 0.8 0
0.15 0.8 0
0.15 0.75 0
0.2 0.75 0
0.15 0.8 0
0.2 0.8 0
0 0.8 0
0.05 0.8 0
0 0.85 0
0.05 0.85 0
0.05 0.8 0
0.1 0.8 0
0.05 0.85 0
0.1 0.85 0
0 0.85 0
0.05 0.85 0
0 0.9 0
0.05 0.9 0
0.05 0.85 0
0.1 0.85 0
0.05 0.9 0
0.1 0.9 0
0.1 0.8 0
0.15 0.8 0
0.1 0.85 0
0.15 0.85 0
0.15 0.8 0
0.2 0.8 0
0.15 0.85 0
0.2 0.85 0
0.1 0.85 0
0.15 0.85 0
0.1 0.9 0
0.15 0.9 0
0.15 0.85 0
0.2 0.85 0
0.15 0.9 0
0.2 0.9 0
0 0.9 0
0.05 0.9 0
0 0.95 0
0.05 0.95 0
0.05 0.9 0
0.1 0.9 0
0.05 0.95 0
0.1 0.95 0
0 0.95 0
0.05 0.95 0
0 1 0
0.05 1 0
0.05 0.95 0
0.1 0.95 0
0.05 1 0
0.1 1 0
0.1 0.9 0
0.15 0.9 0
0.1 0.95 0
0.15 0.95 0
0.15 0.9 0
0.2 0.9 0
0.15 0.95 0
0.2 0.95 0
0.1 0.95 0
0.15 0.95 0
0.1 1 0
0.15 1 0
0.15 0.95 0
0.2 0.95 0
0.15 1 0
0.2 1 0
0.2 0.6 0
0.25 0.6 0
0.2 0.65 0
0.25 0.65 0
0.25 0.6 0
0.3 0.6 0
0.25 0.65 0
0.3 0.65 0
0.2 0.65 0
0.25 0.65 0
0.2 0.7 0
0.25 0.7 0
0.25 0.65 0
0.3 0.65 0
0.25 0.7 0
0.3 0.7 0
0.3 0.6 0
0.35 0.6 0
0.3 0.65 0
[...]
POINT_DATA 2752
VECTORS velocity double
0.769454 0.18164 0
0.720871 0.266859 0
0.672526 0.218513 0
0.630068 0.321026 0
0.720871 0.266859 0
0.654538 0.345505 0
0.630068 0.321026 0
0.572095 0.415639 0
0.672526 0.218513 0
0.630068 0.321026 0
0.559073 0.249995 0
0.523775 0.367293 0
0.630068 0.321026 0
0.572095 0.415639 0
0.523775 0.367293 0
0.475576 0.47554 0
0.654538 0.345505 0
0.572089 0.415644 0
0.572095 0.415639 0
0.500032 0.500016 0
0.572089 0.415644 0
0.475551 0.475548 0
0.500032 0.500016 0
0.415654 0.57208 0
0.572095 0.415639 0
0.500032 0.500016 0
0.475576 0.47554 0
0.415667 0.572077 0
0.500032 0.500016 0
0.415654 0.57208 0
0.415667 0.572077 0
0.345524 0.654526 0
0.559073 0.249995 0
0.523775 0.367293 0
0.431866 0.275326 0
0.404566 0.404512 0
0.523775 0.367293 0
0.475576 0.47554 0
0.404566 0.404512 0
0.367324 0.523728 0
0.431866 0.275326 0
0.404566 0.404512 0
0.293905 0.293903 0
0.275354 0.431757 0
0.404566 0.404512 0
0.367324 0.523728 0
0.275354 0.431757 0
0.250079 0.559007 0
0.475576 0.47554 0
0.415667 0.572077 0
0.367324 0.523728 0
0.321055 0.630044 0
0.415667 0.572077 0
0.345524 0.654526 0
0.321055 0.630044 0
0.266884 0.720851 0
0.367324 0.523728 0
0.321055 0.630044 0
0.250079 0.559007 0
0.21858 0.672501 0
0.321055 0.630044 0
0.266884 0.720851 0
0.21858 0.672501 0
0.181686 0.769426 0
0.587785 0 0
0.707107 0 0
0.580549 -0.126573 0
0.698406 -0.110629 0
0.707107 0 0
0.809017 0 0
0.698406 -0.110629 0
0.799065 -0.0919609 0
0.580549 -0.126573 0
0.698406 -0.110629 0
0.559024 -0.250026 0
0.67251 -0.218531 0
0.698406 -0.110629 0
0.799065 -0.0919609 0
0.67251 -0.218531 0
0.769436 -0.181655 0
0.809017 0 0
0.891007 0 0
0.799065 -0.0919609 0
0.880048 -0.0710286 0
0.891007 0 0
0.951057 0 0
0.880048 -0.0710286 0
0.939361 -0.0483475 0
0.799065 -0.0919609 0
0.880048 -0.0710286 0
0.769436 -0.181655 0
0.847416 -0.140306 0
0.880048 -0.0710286 0
0.939361 -0.0483475 0
0.847416 -0.140306 0
0.904529 -0.0955037 0
0.559024 -0.250026 0
0.67251 -0.218531 0
0.523734 -0.367317 0
0.630054 -0.321047 0
0.67251 -0.218531 0
0.769436 -0.181655 0
0.630054 -0.321047 0
0.720859 -0.266872 0
0.523734 -0.367317 0
0.630054 -0.321047 0
0.475546 -0.47556 0
0.572081 -0.415656 0
0.630054 -0.321047 0
0.720859 -0.266872 0
0.572081 -0.415656 0
0.654531 -0.345516 0
0.769436 -0.181655 0
0.847416 -0.140306 0
0.720859 -0.266872 0
0.793915 -0.206127 0
0.847416 -0.140306 0
0.904529 -0.0955037 0
0.793915 -0.206127 0
0.847423 -0.140307 0
0.720859 -0.266872 0
0.793915 -0.206127 0
0.654531 -0.345516 0
0.720864 -0.266869 0
0.793915 -0.206127 0
0.847423 -0.140307 0
0.720864 -0.266869 0
0.769449 -0.181656 0
0.475546 -0.47556 0
0.572081 -0.415656 0
0.415644 -0.572092 0
0.50002 -0.500027 0
0.572081 -0.415656 0
0.654531 -0.345516 0
0.50002 -0.500027 0
0.572084 -0.415652 0
0.415644 -0.572092 0
0.50002 -0.500027 0
0.345507 -0.654535 0
0.415645 -0.572085 0
0.50002 -0.500027 0
0.572084 -0.415652 0
0.415645 -0.572085 0
0.47555 -0.475552 0
0.654531 -0.345516 0
0.720864 -0.266869 0
0.572084 -0.415652 0
0.630062 -0.321038 0
0.720864 -0.266869 0
0.769449 -0.181656 0
0.630062 -0.321038 0
0.672528 -0.218534 0
0.572084 -0.415652 0
0.630062 -0.321038 0
0.47555 -0.475552 0
0.523752 -0.367308 0
0.630062 -0.321038 0
0.672528 -0.218534 0
0.523752 -0.367308 0
0.559053 -0.25002 0
0.345507 -0.654535 0
0.415645 -0.572085 0
0.266863 -0.720858 0
0.32104 -0.630053 0
0.415645 -0.572085 0
0.47555 -0.475552 0
0.32104 -0.630053 0
0.367315 -0.523736 0
0.266863 -0.720858 0
0.32104 -0.630053 0
0.181637 -0.769432 0
0.218529 -0.672511 0
0.32104 -0.630053 0
0.367315 -0.523736 0
0.218529 -0.672511 0
0.250038 -0.559024 0
0.47555 -0.475552 0
0.523752 -0.367308 0
0.367315 -0.523736 0
0.404551 -0.404522 0
0.523752 -0.367308 0
0.559053 -0.25002 0
0.404551 -0.404522 0
0.431844 -0.275333 0
0.367315 -0.523736 0
0.404551 -0.404522 0
0.250038 -0.559024 0
0.275366 -0.431771 0
0.404551 -0.404522 0
0.431844 -0.275333 0
0.275366 -0.431771 0
0.293931 -0.293894 0
0.181637 -0.769432 0
0.218529 -0.672511 0
0.0918527 -0.79903 0
0.110606 -0.69838 0
0.218529 -0.672511 0
0.250038 -0.559024 0
0.110606 -0.69838 0
0.12662 -0.580521 0
0.0918527 -0.79903 0
0.110606 -0.69838 0
-5.5534e-05 -0.808974 0
-1.00518e-05 -0.707049 0
0.110606 -0.69838 0
0.12662 -0.580521 0
-1.00518e-05 -0.707049 0
2.40759e-05 -0.587736 0
0.951057 0 0
0.987688 0 0
0.939361 -0.0483475 0
0.975543 -0.0244757 0
0.987688 0 0
1 0 0
0.975543 -0.0244757 0
0.987704 -1.31883e-06 0
0.939361 -0.0483475 0
0.975543 -0.0244757 0
0.904529 -0.0955037 0
0.93937 -0.0483484 0
0.975543 -0.0244757 0
0.987704 -1.31883e-06 0
0.93937 -0.0483484 0
0.951081 -2.81607e-06 0
1 0 0
0.987688 0 0
0.987704 -1.31883e-06 0
0.975543 0.0244728 0
0.987688 0 0
0.951057 0 0
0.975543 0.0244728 0
0.939362 0.048344 0
0.987704 -1.31883e-06 0
0.975543 0.0244728 0
0.951081 -2.81607e-06 0
0.939372 0.0483423 0
0.975543 0.0244728 0
0.939362 0.048344 0
0.939372 0.0483423 0
0.904532 0.0954961 0
0.904529 -0.0955037 0
0.93937 -0.0483484 0
0.847423 -0.140307 0
0.880064 -0.0710301 0
0.93937 -0.0483484 0
0.951081 -2.81607e-06 0
0.880064 -0.0710301 0
0.891035 -4.28117e-06 0
0.847423 -0.140307 0
0.880064 -0.0710301 0
0.769449 -0.181656 0
0.799086 -0.0919629 0
0.880064 -0.0710301 0
0.891035 -4.28117e-06 0
0.799086 -0.0919629 0
0.809049 -4.7647e-06 0
0.951081 -2.81607e-06 0
0.939372 0.0483423 0
0.891035 -4.28117e-06 0
0.880067 0.0710212 0
0.939372 0.0483423 0
0.904532 0.0954961 0
0.880067 0.0710212 0
0.847428 0.140295 0
0.891035 -4.28117e-06 0
0.880067 0.0710212 0
0.809049 -4.7647e-06 0
0.799088 0.0919531 0
0.880067 0.0710212 0
0.847428 0.140295 0
0.799088 0.0919531 0
0.769454 0.18164 0
0.769449 -0.181656 0
0.799086 -0.0919629 0
0.672528 -0.218534 0
0.69843 -0.110628 0
0.799086 -0.0919629 0
0.809049 -4.7647e-06 0
0.69843 -0.110628 0
0.707134 -3.98119e-06 0
0.672528 -0.218534 0
0.69843 -0.110628 0
0.559053 -0.25002 0
0.580553 -0.126566 0
0.69843 -0.110628 0
0.707134 -3.98119e-06 0
0.580553 -0.126566 0
0.587782 2.97941e-06 0
0.809049 -4.7647e-06 0
0.799088 0.0919531 0
0.707134 -3.98119e-06 0
0.698428 0.110625 0
0.799088 0.0919531 0
0.769454 0.18164 0
0.698428 0.110625 0
0.672526 0.218513 0
0.707134 -3.98119e-06 0
0.698428 0.110625 0
0.587782 2.97941e-06 0
0.580553 0.126566 0
0.698428 0.110625 0
0.672526 0.218513 0
0.580553 0.126566 0
0.559073 0.249995 0
0.951057 0 0
0.891007 0 0
0.939362 0.048344 0
0.880049 0.0710248 0
0.891007 0 0
0.809017 0 0
0.880049 0.0710248 0
0.799067 0.0919566 0
0.939362 0.048344 0
0.880049 0.0710248 0
0.904532 0.0954961 0
0.84742 0.140299 0
0.880049 0.0710248 0
0.799067 0.0919566 0
0.84742 0.140299 0
0.769441 0.181647 0
0.809017 0 0
0.707107 0 0
0.799067 0.0919566 0
0.698409 0.110624 0
0.707107 0 0
0.587785 0 0
0.698409 0.110624 0
0.580554 0.126567 0
0.799067 0.0919566 0
0.698409 0.110624 0
0.769441 0.181647 0
0.672515 0.218521 0
0.698409 0.110624 0
0.580554 0.126567 0
0.672515 0.218521 0
0.559029 0.250015 0
0.904532 0.0954961 0
0.84742 0.140299 0
0.847428 0.140295 0
0.793921 0.206117 0
0.84742 0.140299 0
0.769441 0.181647 0
0.793921 0.206117 0
0.720866 0.266862 0
0.847428 0.140295 0
0.793921 0.206117 0
0.769454 0.18164 0
0.720871 0.266859 0
0.793921 0.206117 0
0.720866 0.266862 0
0.720871 0.266859 0
0.654538 0.345505 0
0.769441 0.181647 0
0.672515 0.218521 0
0.720866 0.266862 0
0.63006 0.321036 0
0.672515 0.218521 0
0.559029 0.250015 0
0.63006 0.321036 0
0.523739 0.367304 0
0.720866 0.266862 0
0.63006 0.321036 0
0.654538 0.345505 0
0.572089 0.415644 0
0.63006 0.321036 0
0.523739 0.367304 0
0.572089 0.415644 0
0.475551 0.475548 0
0.250079 0.559007 0
0.21858 0.672501 0
0.126659 0.58051 0
0.110676 0.698376 0
0.21858 0.672501 0
0.181686 0.769426 0
0.110676 0.698376 0
0.0919982 0.799034 0
0.126659 0.58051 0
0.110676 0.698376 0
2.97872e-05 0.58774 0
1.49338e-05 0.707037 0
0.110676 0.698376 0
0.0919982 0.799034 0
1.49338e-05 0.707037 0
1.3448e-05 0.80895 0
0 0 0
0.156434 0 0
0 -0.156434 0
0.1545 -0.154521 0
0.156434 0 0
0.309017 0 0
0.1545 -0.154521 0
0.305204 -0.148793 0
0 -0.156434 0
0.1545 -0.154521 0
0 -0.309017 0
0.148776 -0.305229 0
0.1545 -0.154521 0
0.305204 -0.148793 0
0.148776 -0.305229 0
0.293891 -0.293917 0
0.309017 0 0
0.45399 0 0
0.305204 -0.148793 0
0.448396 -0.1394 0
0.45399 0 0
0.587785 0 0
0.448396 -0.1394 0
0.580549 -0.126573 0
0.305204 -0.148793 0
0.448396 -0.1394 0
0.293891 -0.293917 0
0.431773 -0.275363 0
0.448396 -0.1394 0
0.580549 -0.126573 0
0.431773 -0.275363 0
0.559024 -0.250026 0
0 -0.309017 0
0.148776 -0.305229 0
0 -0.45399 0
0.139386 -0.44842 0
0.148776 -0.305229 0
0.293891 -0.293917 0
0.139386 -0.44842 0
0.275342 -0.4318 0
0 -0.45399 0
0.139386 -0.44842 0
0 -0.587785 0
0.126563 -0.580571 0
0.139386 -0.44842 0
0.275342 -0.4318 0
0.126563 -0.580571 0
0.250011 -0.55905 0
0.293891 -0.293917 0
0.431773 -0.275363 0
0.275342 -0.4318 0
0.404519 -0.404541 0
0.431773 -0.275363 0
0.559024 -0.250026 0
0.404519 -0.404541 0
0.523734 -0.367317 0
0.275342 -0.4318 0
0.404519 -0.404541 0
0.250011 -0.55905 0
0.367301 -0.523755 0
0.404519 -0.404541 0
0.523734 -0.367317 0
0.367301 -0.523755 0
0.475546 -0.47556 0
0 -0.587785 0
0.126563 -0.580571 0
0 -0.707107 0
0.110624 -0.698427 0
0.126563 -0.580571 0
0.250011 -0.55905 0
0.110624 -0.698427 0
0.218521 -0.672531 0
0 -0.707107 0
0.110624 -0.698427 0
0 -0.809017 0
0.0919592 -0.799085 0
0.110624 -0.698427 0
0.218521 -0.672531 0
0.0919592 -0.799085 0
0.181649 -0.76945 0
0.250011 -0.55905 0
0.367301 -0.523755 0
0.218521 -0.672531 0
0.321036 -0.630069 0
0.367301 -0.523755 0
0.475546 -0.47556 0
0.321036 -0.630069 0
0.415644 -0.572092 0
0.218521 -0.672531 0
0.321036 -0.630069 0
0.181649 -0.76945 0
0.266863 -0.720868 0
0.321036 -0.630069 0
0.415644 -0.572092 0
0.266863 -0.720868 0
0.345507 -0.654535 0
0 -0.809017 0
0.0919592 -0.799085 0
0 -0.891007 0
0.0710308 -0.880059 0
0.0919592 -0.799085 0
0.181649 -0.76945 0
0.0710308 -0.880059 0
0.140302 -0.847414 0
0 -0.891007 0
0.0710308 -0.880059 0
0 -0.951057 0
0.0483532 -0.939365 0
0.0710308 -0.880059 0
0.140302 -0.847414 0
0.0483532 -0.939365 0
0.0954996 -0.904517 0
0.181649 -0.76945 0
0.266863 -0.720868 0
0.140302 -0.847414 0
0.206118 -0.793911 0
0.266863 -0.720868 0
0.345507 -0.654535 0
0.206118 -0.793911 0
0.266863 -0.720858 0
0.140302 -0.847414 0
0.206118 -0.793911 0
0.0954996 -0.904517 0
0.140298 -0.847408 0
0.206118 -0.793911 0
0.266863 -0.720858 0
0.140298 -0.847408 0
0.181637 -0.769432 0
-0.904442 -0.095481 0
-0.939301 -0.0483786 0
-0.939263 -0.0483235 0
-0.975494 -0.0244801 0
-0.939301 -0.0483786 0
-0.95102 8.85445e-07 0
-0.975494 -0.0244801 0
-0.987658 3.01122e-06 0
-0.939263 -0.0483235 0
-0.975494 -0.0244801 0
-0.951057 -3.78437e-17 0
-0.987688 -1.91577e-17 0
-0.975494 -0.0244801 0
-0.987658 3.01122e-06 0
-0.987688 -1.91577e-17 0
-1 -3.46914e-32 0
0.587785 0 0
0.45399 0 0
0.580554 0.126567 0
0.448404 0.139394 0
0.45399 0 0
0.309017 0 0
0.448404 0.139394 0
0.305212 0.148789 0
0.580554 0.126567 0
0.448404 0.139394 0
0.559029 0.250015 0
0.431778 0.275352 0
0.448404 0.139394 0
0.305212 0.148789 0
0.431778 0.275352 0
0.293896 0.29391 0
0.309017 0 0
0.156434 0 0
0.305212 0.148789 0
0.154506 0.15452 0
0.156434 0 0
1.22465e-16 0 0
0.154506 0.15452 0
1.20957e-16 0.156434 0
0.305212 0.148789 0
0.154506 0.15452 0
0.293896 0.29391 0
0.148779 0.305228 0
0.154506 0.15452 0
1.20957e-16 0.156434 0
0.148779 0.305228 0
1.16471e-16 0.309017 0
0.559029 0.250015 0
0.431778 0.275352 0
0.523739 0.367304 0
0.404522 0.404528 0
0.431778 0.275352 0
0.293896 0.29391 0
0.404522 0.404528 0
0.275344 0.43179 0
0.523739 0.367304 0
0.404522 0.404528 0
0.475551 0.475548 0
0.367304 0.523741 0
0.404522 0.404528 0
0.275344 0.43179 0
0.367304 0.523741 0
0.250012 0.559038 0
0.293896 0.29391 0
0.148779 0.305228 0
0.275344 0.43179 0
0.139388 0.448417 0
0.148779 0.305228 0
1.16471e-16 0.309017 0
0.139388 0.448417 0
1.09117e-16 0.45399 0
0.275344 0.43179 0
0.139388 0.448417 0
0.250012 0.559038 0
0.126564 0.580565 0
0.139388 0.448417 0
1.09117e-16 0.45399 0
0.126564 0.580565 0
9.9076e-17 0.587785 0
0.475551 0.475548 0
0.367304 0.523741 0
0.415654 0.57208 0
0.321041 0.630058 0
0.367304 0.523741 0
0.250012 0.559038 0
0.321041 0.630058 0
0.218522 0.672519 0
0.415654 0.57208 0
0.321041 0.630058 0
0.345524 0.654526 0
0.266874 0.720859 0
0.321041 0.630058 0
0.218522 0.672519 0
0.266874 0.720859 0
0.181653 0.769441 0
0.250012 0.559038 0
0.126564 0.580565 0
0.218522 0.672519 0
0.110623 0.698417 0
0.126564 0.580565 0
9.9076e-17 0.587785 0
0.110623 0.698417 0
8.65956e-17 0.707107 0
0.218522 0.672519 0
0.110623 0.698417 0
0.181653 0.769441 0
0.0919588 0.799072 0
0.110623 0.698417 0
8.65956e-17 0.707107 0
0.0919588 0.799072 0
7.19829e-17 0.809017 0
0.345524 0.654526 0
0.266874 0.720859 0
0.266884 0.720851 0
0.206136 0.793908 0
0.266874 0.720859 0
0.181653 0.769441 0
0.206136 0.793908 0
0.14031 0.847415 0
0.266884 0.720851 0
0.206136 0.793908 0
0.181686 0.769426 0
0.140326 0.847404 0
0.206136 0.793908 0
0.14031 0.847415 0
0.140326 0.847404 0
0.095515 0.90452 0
0.181653 0.769441 0
0.0919588 0.799072 0
0.14031 0.847415 0
0.0710302 0.88005 0
0.0919588 0.799072 0
7.19829e-17 0.809017 0
0.0710302 0.88005 0
5.55978e-17 0.891007 0
0.14031 0.847415 0
0.0710302 0.88005 0
0.095515 0.90452 0
0.0483541 0.939358 0
0.0710302 0.88005 0
5.55978e-17 0.891007 0
0.0483541 0.939358 0
3.78437e-17 0.951057 0
0.181686 0.769426 0
0.140326 0.847404 0
0.0919982 0.799034 0
0.0710555 0.880021 0
0.140326 0.847404 0
0.095515 0.90452 0
0.0710555 0.880021 0
0.0483549 0.939343 0
0.0919982 0.799034 0
0.0710555 0.880021 0
1.3448e-05 0.80895 0
3.01364e-05 0.890935 0
0.0710555 0.880021 0
0.0483549 0.939343 0
3.01364e-05 0.890935 0
6.00948e-05 0.951018 0
0.095515 0.90452 0
0.0483541 0.939358 0
0.0483549 0.939343 0
0.0244844 0.975529 0
0.0483541 0.939358 0
3.78437e-17 0.951057 0
0.0244844 0.975529 0
1.91577e-17 0.987688 0
0.0483549 0.939343 0
0.0244844 0.975529 0
6.00948e-05 0.951018 0
3.95127e-05 0.987679 0
0.0244844 0.975529 0
1.91577e-17 0.987688 0
3.95127e-05 0.987679 0
7.4988e-33 1 0
6.00948e-05 0.951018 0
3.95127e-05 0.987679 0
-0.0482811 0.939274 0
-0.0244366 0.975465 0
3.95127e-05 0.987679 0
7.4988e-33 1 0
-0.0244366 0.975465 0
-1.91577e-17 0.987688 0
-0.0482811 0.939274 0
-0.0244366 0.975465 0
-0.0954557 0.904397 0
-0.0483096 0.939169 0
-0.0244366 0.975465 0
-1.91577e-17 0.987688 0
-0.0483096 0.939169 0
-3.78437e-17 0.951057 0
0.293931 -0.293894 0
0.30522 -0.148784 0
0.148752 -0.305199 0
0.154513 -0.154497 0
0.30522 -0.148784 0
0.309014 4.11114e-07 0
0.154513 -0.154497 0
0.156449 5.81558e-06 0
0.148752 -0.305199 0
0.154513 -0.154497 0
-1.24301e-05 -0.309004 0
5.17605e-06 -0.156426 0
0.154513 -0.154497 0
0.156449 5.81558e-06 0
5.17605e-06 -0.156426 0
1.92875e-05 9.35508e-06 0
0.309014 4.11114e-07 0
0.305211 0.148789 0
0.156449 5.81558e-06 0
0.154518 0.154512 0
0.305211 0.148789 0
0.293905 0.293903 0
0.154518 0.154512 0
0.148773 0.305208 0
0.156449 5.81558e-06 0
0.154518 0.154512 0
1.92875e-05 9.35508e-06 0
1.59191e-05 0.156441 0
0.154518 0.154512 0
0.148773 0.305208 0
1.59191e-05 0.156441 0
4.82336e-06 0.309014 0
-1.24301e-05 -0.309004 0
5.17605e-06 -0.156426 0
-0.148781 -0.305206 0
-0.154493 -0.1545 0
5.17605e-06 -0.156426 0
1.92875e-05 9.35508e-06 0
-0.154493 -0.1545 0
-0.156412 1.11192e-05 0
-0.148781 -0.305206 0
-0.154493 -0.1545 0
-0.29388 -0.293907 0
-0.305195 -0.148763 0
-0.154493 -0.1545 0
-0.156412 1.11192e-05 0
-0.305195 -0.148763 0
-0.308997 1.36333e-05 0
1.92875e-05 9.35508e-06 0
1.59191e-05 0.156441 0
-0.156412 1.11192e-05 0
-0.154485 0.154519 0
1.59191e-05 0.156441 0
4.82336e-06 0.309014 0
-0.154485 0.154519 0
-0.148765 0.305218 0
-0.156412 1.11192e-05 0
-0.154485 0.154519 0
-0.308997 1.36333e-05 0
-0.305191 0.148791 0
-0.154485 0.154519 0
-0.148765 0.305218 0
-0.305191 0.148791 0
-0.293871 0.293916 0
0 -0.951057 0
-0.048328 -0.939513 0
0 -0.891007 0
-0.0710048 -0.880106 0
-0.048328 -0.939513 0
-0.095487 -0.904663 0
-0.0710048 -0.880106 0
-0.140287 -0.847476 0
0 -0.891007 0
-0.0710048 -0.880106 0
0 -0.809017 0
-0.0919453 -0.799077 0
-0.0710048 -0.880106 0
-0.140287 -0.847476 0
-0.0919453 -0.799077 0
-0.181637 -0.769451 0
-0.095487 -0.904663 0
-0.140283 -0.84754 0
-0.140287 -0.847476 0
-0.206108 -0.793967 0
-0.140283 -0.84754 0
-0.181624 -0.769547 0
-0.206108 -0.793967 0
-0.266848 -0.720907 0
-0.140287 -0.847476 0
-0.206108 -0.793967 0
-0.181637 -0.769451 0
-0.266855 -0.720873 0
-0.206108 -0.793967 0
-0.266848 -0.720907 0
-0.266855 -0.720873 0
-0.345498 -0.654543 0
0 -0.809017 0
-0.0919453 -0.799077 0
0 -0.707107 0
-0.110617 -0.698398 0
-0.0919453 -0.799077 0
-0.181637 -0.769451 0
-0.110617 -0.698398 0
-0.218517 -0.672504 0
0 -0.707107 0
-0.110617 -0.698398 0
0 -0.587785 0
-0.126563 -0.580528 0
-0.110617 -0.698398 0
-0.218517 -0.672504 0
-0.126563 -0.580528 0
-0.250014 -0.559006 0
-0.181637 -0.769451 0
-0.266855 -0.720873 0
-0.218517 -0.672504 0
-0.321035 -0.630049 0
-0.266855 -0.720873 0
-0.345498 -0.654543 0
-0.321035 -0.630049 0
-0.415648 -0.572078 0
-0.218517 -0.672504 0
-0.321035 -0.630049 0
-0.250014 -0.559006 0
-0.367307 -0.523718 0
-0.321035 -0.630049 0
-0.415648 -0.572078 0
-0.367307 -0.523718 0
-0.475579 -0.475505 0
0 -0.587785 0
-0.126563 -0.580528 0
0 -0.45399 0
-0.139404 -0.448369 0
-0.126563 -0.580528 0
-0.250014 -0.559006 0
-0.139404 -0.448369 0
-0.275389 -0.431754 0
0 -0.45399 0
-0.139404 -0.448369 0
0 -0.309017 0
-0.148796 -0.305171 0
-0.139404 -0.448369 0
-0.275389 -0.431754 0
-0.148796 -0.305171 0
-0.293945 -0.293861 0
-0.250014 -0.559006 0
-0.367307 -0.523718 0
-0.275389 -0.431754 0
-0.404607 -0.404515 0
-0.367307 -0.523718 0
-0.475579 -0.475505 0
-0.404607 -0.404515 0
-0.523893 -0.367296 0
-0.275389 -0.431754 0
-0.404607 -0.404515 0
-0.293945 -0.293861 0
-0.431886 -0.275335 0
-0.404607 -0.404515 0
-0.523893 -0.367296 0
-0.431886 -0.275335 0
-0.559224 -0.250034 0
0 -0.309017 0
-0.148796 -0.305171 0
0 -0.156434 0
-0.15452 -0.154478 0
-0.148796 -0.305171 0
-0.293945 -0.293861 0
-0.15452 -0.154478 0
-0.305234 -0.148745 0
0 -0.156434 0
-0.15452 -0.154478 0
0 -1.22465e-16 0
-0.156434 -1.20957e-16 0
-0.15452 -0.154478 0
-0.305234 -0.148745 0
-0.156434 -1.20957e-16 0
-0.309017 -1.16471e-16 0
-0.293945 -0.293861 0
-0.431886 -0.275335 0
-0.305234 -0.148745 0
-0.448481 -0.13936 0
-0.431886 -0.275335 0
-0.559224 -0.250034 0
-0.448481 -0.13936 0
-0.580794 -0.12658 0
-0.305234 -0.148745 0
-0.448481 -0.13936 0
-0.309017 -1.16471e-16 0
-0.45399 -1.09117e-16 0
-0.448481 -0.13936 0
-0.580794 -0.12658 0
-0.45399 -1.09117e-16 0
-0.587785 -9.9076e-17 0
-0.181624 -0.769547 0
-0.218492 -0.672592 0
-0.266848 -0.720907 0
-0.32101 -0.630069 0
-0.218492 -0.672592 0
-0.249983 -0.559084 0
-0.32101 -0.630069 0
-0.367275 -0.523734 0
-0.266848 -0.720907 0
-0.32101 -0.630069 0
-0.345498 -0.654543 0
-0.415619 -0.572045 0
-0.32101 -0.630069 0
-0.367275 -0.523734 0
-0.415619 -0.572045 0
-0.475517 -0.475496 0
-0.249983 -0.559084 0
-0.275324 -0.43182 0
-0.367275 -0.523734 0
-0.404495 -0.404512 0
-0.275324 -0.43182 0
-0.29388 -0.293907 0
-0.404495 -0.404512 0
-0.431754 -0.275333 0
-0.367275 -0.523734 0
-0.404495 -0.404512 0
-0.475517 -0.475496 0
-0.523707 -0.367255 0
-0.404495 -0.404512 0
-0.431754 -0.275333 0
-0.523707 -0.367255 0
-0.559003 -0.249971 0
-0.345498 -0.654543 0
-0.415619 -0.572045 0
-0.415648 -0.572078 0
-0.499997 -0.499921 0
-0.415619 -0.572045 0
-0.475517 -0.475496 0
-0.499997 -0.499921 0
-0.572054 -0.415546 0
-0.415648 -0.572078 0
-0.499997 -0.499921 0
-0.475579 -0.475505 0
-0.572071 -0.415444 0
-0.499997 -0.499921 0
-0.572054 -0.415546 0
-0.572071 -0.415444 0
-0.654509 -0.34533 0
-0.475517 -0.475496 0
-0.523707 -0.367255 0
-0.572054 -0.415546 0
-0.630023 -0.320947 0
-0.523707 -0.367255 0
-0.559003 -0.249971 0
-0.630023 -0.320947 0
-0.672484 -0.218448 0
-0.572054 -0.415546 0
-0.630023 -0.320947 0
-0.654509 -0.34533 0
-0.720831 -0.26671 0
-0.630023 -0.320947 0
-0.672484 -0.218448 0
-0.720831 -0.26671 0
-0.769406 -0.181528 0
-0.29388 -0.293907 0
-0.305195 -0.148763 0
-0.431754 -0.275333 0
-0.448388 -0.139363 0
-0.305195 -0.148763 0
-0.308997 1.36333e-05 0
-0.448388 -0.139363 0
-0.453974 1.76559e-05 0
-0.431754 -0.275333 0
-0.448388 -0.139363 0
-0.559003 -0.249971 0