# vtk DataFile Version 3.0
#This file was generated by the deal.II library on 2026/5/26 at 21:24:42
ASCII
DATASET UNSTRUCTURED_GRID

POINTS 208 double
0 0 0
0.2 0 0
0 0.2 0
0.2 0.2 0
0 0.2 0
0.2 0.2 0
0 0.4 0
0.2 0.4 0
0 0.4 0
0.2 0.4 0
0 0.6 0
0.2 0.6 0
0 0.6 0
0.2 0.6 0
0 0.8 0
0.2 0.8 0
0 0.8 0
0.2 0.8 0
0 1 0
0.2 1 0
0.2 0.6 0
0.4 0.6 0
0.2 0.8 0
0.4 0.8 0
0.2 0.8 0
0.4 0.8 0
0.2 1 0
0.4 1 0
0.4 0.6 0
0.6 0.6 0
0.4 0.8 0
0.6 0.8 0
0.4 0.8 0
0.6 0.8 0
0.4 1 0
0.6 1 0
0.6 0.6 0
0.8 0.6 0
0.6 0.8 0
0.8 0.8 0
0.6 0.8 0
0.8 0.8 0
0.6 1 0
0.8 1 0
0.8 0 0
1 0 0
0.8 0.2 0
1 0.2 0
0.8 0.2 0
1 0.2 0
0.8 0.4 0
1 0.4 0
0.8 0.4 0
1 0.4 0
0.8 0.6 0
1 0.6 0
0.8 0.6 0
1 0.6 0
0.8 0.8 0
1 0.8 0
0.8 0.8 0
1 0.8 0
0.8 1 0
1 1 0
0.2 0 0
0.3 0 0
0.2 0.1 0
0.3 0.1 0
0.3 0 0
0.4 0 0
0.3 0.1 0
0.4 0.1 0
0.2 0.1 0
0.3 0.1 0
0.2 0.2 0
0.3 0.2 0
0.3 0.1 0
0.4 0.1 0
0.3 0.2 0
0.4 0.2 0
0.2 0.2 0
0.3 0.2 0
0.2 0.3 0
0.3 0.3 0
0.3 0.2 0
0.4 0.2 0
0.3 0.3 0
0.4 0.3 0
0.2 0.3 0
0.3 0.3 0
0.2 0.4 0
0.3 0.4 0
0.3 0.3 0
0.4 0.3 0
0.3 0.4 0
0.4 0.4 0
0.2 0.4 0
0.3 0.4 0
0.2 0.5 0
0.3 0.5 0
0.3 0.4 0
0.4 0.4 0
0.3 0.5 0
0.4 0.5 0
0.2 0.5 0
0.3 0.5 0
0.2 0.6 0
0.3 0.6 0
0.3 0.5 0
0.4 0.5 0
0.3 0.6 0
0.4 0.6 0
0.4 0 0
0.5 0 0
0.4 0.1 0
0.5 0.1 0
0.5 0 0
0.6 0 0
0.5 0.1 0
0.6 0.1 0
0.4 0.1 0
0.5 0.1 0
0.4 0.2 0
0.5 0.2 0
0.5 0.1 0
0.6 0.1 0
0.5 0.2 0
0.6 0.2 0
0.4 0.2 0
0.5 0.2 0
0.4 0.3 0
0.5 0.3 0
0.5 0.2 0
0.6 0.2 0
0.5 0.3 0
0.6 0.3 0
0.4 0.3 0
0.5 0.3 0
0.4 0.4 0
0.5 0.4 0
0.5 0.3 0
0.6 0.3 0
0.5 0.4 0
0.6 0.4 0
0.4 0.4 0
0.5 0.4 0
0.4 0.5 0
0.5 0.5 0
0.5 0.4 0
0.6 0.4 0
0.5 0.5 0
0.6 0.5 0
0.4 0.5 0
0.5 0.5 0
0.4 0.6 0
0.5 0.6 0
0.5 0.5 0
0.6 0.5 0
0.5 0.6 0
0.6 0.6 0
0.6 0 0
0.7 0 0
0.6 0.1 0
0.7 0.1 0
0.7 0 0
0.8 0 0
0.7 0.1 0
0.8 0.1 0
0.6 0.1 0
0.7 0.1 0
0.6 0.2 0
0.7 0.2 0
0.7 0.1 0
0.8 0.1 0
0.7 0.2 0
0.8 0.2 0
0.6 0.2 0
0.7 0.2 0
0.6 0.3 0
0.7 0.3 0
0.7 0.2 0
0.8 0.2 0
0.7 0.3 0
0.8 0.3 0
0.6 0.3 0
0.7 0.3 0
0.6 0.4 0
0.7 0.4 0
0.7 0.3 0
0.8 0.3 0
0.7 0.4 0
0.8 0.4 0
0.6 0.4 0
0.7 0.4 0
0.6 0.5 0
0.7 0.5 0
0.7 0.4 0
0.8 0.4 0
0.7 0.5 0
0.8 0.5 0
0.6 0.5 0
0.7 0.5 0
0.6 0.6 0
0.7 0.6 0
0.7 0.5 0
0.8 0.5 0
0.7 0.6 0
0.8 0.6 0

CELLS 52 260
4	0	1	3	2
4	4	5	7	6
4	8	9	11	10
4	12	13	15	14
4	16	17	19	18
4	20	21	23	22
4	24	25	27	26
4	28	29	31	30
4	32	33	35	34
4	36	37	39	38
4	40	41	43	42
4	44	45	47	46
4	48	49	51	50
4	52	53	55	54
4	56	57	59	58
4	60	61	63	62
4	64	65	67	66
4	68	69	71	70
4	72	73	75	74
4	76	77	79	78
4	80	81	83	82
4	84	85	87	86
4	88	89	91	90
4	92	93	95	94
4	96	97	99	98
4	100	101	103	102
4	104	105	107	106
4	108	109	111	110
4	112	113	115	114
4	116	117	119	118
4	120	121	123	122
4	124	125	127	126
4	128	129	131	130
4	132	133	135	134
4	136	137	139	138
4	140	141	143	142
4	144	145	147	146
4	148	149	151	150
4	152	153	155	154
4	156	157	159	158
4	160	161	163	162
4	164	165	167	166
4	168	169	171	170
4	172	173	175	174
4	176	177	179	178
4	180	181	183	182
4	184	185	187	186
4	188	189	191	190
4	192	193	195	194
4	196	197	199	198
4	200	201	203	202
4	204	205	207	206

CELL_TYPES 52
 9 9 9 9 9 9 9 9 9 9 9 9 9 9 9 9 9 9 9 9 9 9 9 9 9 9 9 9 9 9 9 9 9 9 9 9 9 9 9 9 9 9 9 9 9 9 9 9 9 9 9 9
POINT_DATA 208
VECTORS velocity double
0 0 0
0.587785 0 0
0 -0.587785 0
0.479697 -0.472636 0
0 -0.587785 0
0.479697 -0.472636 0
0 -0.951057 0
0.190632 -0.769657 0
0 -0.951057 0
0.190632 -0.769657 0
0 -0.951057 0
-0.178138 -0.770485 0
0 -0.951057 0
-0.178138 -0.770485 0
0 -0.587785 0
-0.476072 -0.473722 0
0 -0.587785 0
-0.476072 -0.473722 0
0 -1.22465e-16 0
-0.587785 -9.9076e-17 0
-0.178138 -0.770485 0
-0.292767 -0.298873 0
-0.476072 -0.473722 0
-0.770526 -0.183744 0
-0.476072 -0.473722 0
-0.770526 -0.183744 0
-0.587785 -9.9076e-17 0
-0.951057 -3.78437e-17 0
-0.292767 -0.298873 0
-0.294669 0.295171 0
-0.770526 -0.183744 0
-0.769973 0.180692 0
-0.770526 -0.183744 0
-0.769973 0.180692 0
-0.951057 -3.78437e-17 0
-0.951057 3.78437e-17 0
-0.294669 0.295171 0
-0.181303 0.775214 0
-0.769973 0.180692 0
-0.474621 0.477952 0
-0.769973 0.180692 0
-0.474621 0.477952 0
-0.951057 3.78437e-17 0
-0.587785 9.9076e-17 0
0.587785 0 0
1.22465e-16 0 0
0.485705 0.478588 0
9.9076e-17 0.587785 0
0.485705 0.478588 0
9.9076e-17 0.587785 0
0.184366 0.77362 0
3.78437e-17 0.951057 0
0.184366 0.77362 0
3.78437e-17 0.951057 0
-0.181303 0.775214 0
-3.78437e-17 0.951057 0
-0.181303 0.775214 0
-3.78437e-17 0.951057 0
-0.474621 0.477952 0
-9.9076e-17 0.587785 0
-0.474621 0.477952 0
-9.9076e-17 0.587785 0
-0.587785 9.9076e-17 0
-1.22465e-16 1.22465e-16 0
0.587785 0 0
0.809017 0 0
0.544044 -0.248209 0
0.754369 -0.183393 0
0.809017 0 0
0.951057 0 0
0.754369 -0.183393 0
0.892735 -0.097553 0
0.544044 -0.248209 0
0.754369 -0.183393 0
0.479697 -0.472636 0
0.655142 -0.346143 0
0.754369 -0.183393 0
0.892735 -0.097553 0
0.655142 -0.346143 0
0.764917 -0.183576 0
0.479697 -0.472636 0
0.655142 -0.346143 0
0.33887 -0.652677 0
0.4717 -0.476023 0
0.655142 -0.346143 0
0.764917 -0.183576 0
0.4717 -0.476023 0
0.557375 -0.250975 0
0.33887 -0.652677 0
0.4717 -0.476023 0
0.190632 -0.769657 0
0.253913 -0.55655 0
0.4717 -0.476023 0
0.557375 -0.250975 0
0.253913 -0.55655 0
0.292329 -0.294486 0
0.190632 -0.769657 0
0.253913 -0.55655 0
-0.00134573 -0.810775 0
-0.00149381 -0.580741 0
0.253913 -0.55655 0
0.292329 -0.294486 0
-0.00149381 -0.580741 0
0.000656405 -0.312387 0
-0.00134573 -0.810775 0
-0.00149381 -0.580741 0
-0.178138 -0.770485 0
-0.247229 -0.551305 0
-0.00149381 -0.580741 0
0.000656405 -0.312387 0
-0.247229 -0.551305 0
-0.292767 -0.298873 0
0.951057 0 0
1 0 0
0.892735 -0.097553 0
0.941441 -0.00124092 0
1 0 0
0.951057 0 0
0.941441 -0.00124092 0
0.897299 0.0935502 0
0.892735 -0.097553 0
0.941441 -0.00124092 0
0.764917 -0.183576 0
0.80364 -0.00215098 0
0.941441 -0.00124092 0
0.897299 0.0935502 0
0.80364 -0.00215098 0
0.763385 0.179604 0
0.764917 -0.183576 0
0.80364 -0.00215098 0
0.557375 -0.250975 0
0.585059 -0.00192109 0
0.80364 -0.00215098 0
0.763385 0.179604 0
0.585059 -0.00192109 0
0.556759 0.248536 0
0.557375 -0.250975 0
0.585059 -0.00192109 0
0.292329 -0.294486 0
0.307961 -0.0012979 0
0.585059 -0.00192109 0
0.556759 0.248536 0
0.307961 -0.0012979 0
0.293029 0.291321 0
0.292329 -0.294486 0
0.307961 -0.0012979 0
0.000656405 -0.312387 0
0.00152114 -0.00126258 0
0.307961 -0.0012979 0
0.293029 0.291321 0
0.00152114 -0.00126258 0
-0.000559941 0.30819 0
0.000656405 -0.312387 0
0.00152114 -0.00126258 0
-0.292767 -0.298873 0
-0.309331 -0.000223274 0
0.00152114 -0.00126258 0
-0.000559941 0.30819 0
-0.309331 -0.000223274 0
-0.294669 0.295171 0
0.951057 0 0
0.809017 0 0
0.897299 0.0935502 0
0.761802 0.185179 0
0.809017 0 0
0.587785 0 0
0.761802 0.185179 0
0.546661 0.251542 0
0.897299 0.0935502 0
0.761802 0.185179 0
0.763385 0.179604 0
0.653662 0.345227 0
0.761802 0.185179 0
0.546661 0.251542 0
0.653662 0.345227 0
0.485705 0.478588 0
0.763385 0.179604 0
0.653662 0.345227 0
0.556759 0.248536 0
0.471683 0.470648 0
0.653662 0.345227 0
0.485705 0.478588 0
0.471683 0.470648 0
0.33768 0.659088 0
0.556759 0.248536 0
0.471683 0.470648 0
0.293029 0.291321 0
0.251081 0.556578 0
0.471683 0.470648 0
0.33768 0.659088 0
0.251081 0.556578 0
0.184366 0.77362 0
0.293029 0.291321 0
0.251081 0.556578 0
-0.000559941 0.30819 0
-0.00117914 0.582792 0
0.251081 0.556578 0
0.184366 0.77362 0
-0.00117914 0.582792 0
-0.00148418 0.814353 0
-0.000559941 0.30819 0
-0.00117914 0.582792 0
-0.294669 0.295171 0
-0.250034 0.551832 0
-0.00117914 0.582792 0
-0.00148418 0.814353 0
-0.250034 0.551832 0
-0.181303 0.775214 0
SCALARS pressure double 1
LOOKUP_TABLE default
-0.0141054 -0.00753163 0.617805 0.501249 0.617805 0.501249 1.0205 0.820513 1.0205 0.820513 1.01723 0.823649 1.01723 0.823649 0.620965 0.504086 0.620965 0.504086 -0.0173983 -0.00229698 0.823649 0.317219 0.504086 0.198909 0.504086 0.198909 -0.00229698 0.000285257 0.317219 -0.30277 0.198909 -0.191563 0.198909 -0.191563 0.000285257 -0.00085552 -0.30277 -0.816657 -0.191563 -0.510097 -0.191563 -0.510097 -0.00085552 -0.0100201 -0.0126093 -0.0272115 -0.505477 -0.630533 -0.505477 -0.630533 -0.812915 -1.02041 -0.812915 -1.02041 -0.816657 -1.01769 -0.816657 -1.01769 -0.510097 -0.632958 -0.510097 -0.632958 -0.0100201 -0.019397 -0.00753163 -0.0035045 0.246859 0.181398 -0.0035045 0.00198153 0.181398 0.0988888 0.246859 0.181398 0.501249 0.348561 0.181398 0.0988888 0.348561 0.188908 0.501249 0.348561 0.660881 0.487223 0.348561 0.188908 0.487223 0.259197 0.660881 0.487223 0.820513 0.566005 0.487223 0.259197 0.566005 0.307683 0.820513 0.566005 0.822081 0.601786 0.566005 0.307683 0.601786 0.320458 0.822081 0.601786 0.823649 0.570434 0.601786 0.320458 0.570434 0.317219 0.00198153 0.00240729 0.0988888 0.00243936 0.00240729 -0.0005291 0.00243936 -0.096321 0.0988888 0.00243936 0.188908 0.00350001 0.00243936 -0.096321 0.00350001 -0.182125 0.188908 0.00350001 0.259197 0.00555775 0.00350001 -0.182125 0.00555775 -0.249733 0.259197 0.00555775 0.307683 0.00694817 0.00555775 -0.249733 0.00694817 -0.295008 0.307683 0.00694817 0.320458 0.00661681 0.00694817 -0.295008 0.00661681 -0.306361 0.320458 0.00661681 0.317219 0.0072245 0.00661681 -0.306361 0.0072245 -0.30277 -0.0005291 0.00670244 -0.096321 -0.181576 0.00670244 -0.0126093 -0.181576 -0.259043 -0.096321 -0.181576 -0.182125 -0.349859 -0.181576 -0.259043 -0.349859 -0.505477 -0.182125 -0.349859 -0.249733 -0.48051 -0.349859 -0.505477 -0.48051 -0.659196 -0.249733 -0.48051 -0.295008 -0.557947 -0.48051 -0.659196 -0.557947 -0.812915 -0.295008 -0.557947 -0.306361 -0.589997 -0.557947 -0.812915 -0.589997 -0.814786 -0.306361 -0.589997 -0.30277 -0.559714 -0.589997 -0.814786 -0.559714 -0.816657 
SCALARS temperature double 1
LOOKUP_TABLE default
0 0 0 0 0 0 0 0 0 0 0 0 0 0 0 0 0 0 0 0 0 0 0 0 0 0 0 0 0 0 0 0 0 0 0 0 0 0 0 0 0 0 0 0 0 0 0 0 0 0 0 0 0 0 0 0 0 0 0 0 0 0 0 0 0 0 0 0 0 0 0 0 0 0 0 0 0 0 0 0 0 0 0 0 0 0 0 0 0 0 0 0 0 0 0 0 0 0 0 0 0 0 0 0 0 0 0 0 0 0 0 0 0 0 0 0 0 0 0 0 0 0 0 0 0 0 0 0 0 0 0 0 0 0 0 0 0 0 0 0 0 0 0 0 0 0 0 0 0 0 0 0 0 0 0 0 0 0 0 0 0 0 0 0 0 0 0 0 0 0 0 0 0 0 0 0 0 0 0 0 0 0 0 0 0 0 0 0 0 0 0 0 0 0 0 0 0 0 0 0 0 0 0 0 0 0 0 0 
