# vtk DataFile Version 3.0
#This file was generated by the deal.II library on 2026/5/26 at 21:24:42
ASCII
DATASET UNSTRUCTURED_GRID

POINTS 208 double
0 0 0
0.2 0 0
0 0.2 0
0.2 0.2 0
0 0.2 0
0.2 0.2 0
0 0.4 0
0.2 0.4 0
0 0.4 0
0.2 0.4 0
0 0.6 0
0.2 0.6 0
0 0.6 0
0.2 0.6 0
0 0.8 0
0.2 0.8 0
0 0.8 0
0.2 0.8 0
0 1 0
0.2 1 0
0.2 0.6 0
0.4 0.6 0
0.2 0.8 0
0.4 0.8 0
0.2 0.8 0
0.4 0.8 0
0.2 1 0
0.4 1 0
0.4 0.6 0
0.6 0.6 0
0.4 0.8 0
0.6 0.8 0
0.4 0.8 0
0.6 0.8 0
0.4 1 0
0.6 1 0
0.6 0.6 0
0.8 0.6 0
0.6 0.8 0
0.8 0.8 0
0.6 0.8 0
0.8 0.8 0
0.6 1 0
0.8 1 0
0.8 0 0
1 0 0
0.8 0.2 0
1 0.2 0
0.8 0.2 0
1 0.2 0
0.8 0.4 0
1 0.4 0
0.8 0.4 0
1 0.4 0
0.8 0.6 0
1 0.6 0
0.8 0.6 0
1 0.6 0
0.8 0.8 0
1 0.8 0
0.8 0.8 0
1 0.8 0
0.8 1 0
1 1 0
0.2 0 0
0.3 0 0
0.2 0.1 0
0.3 0.1 0
0.3 0 0
0.4 0 0
0.3 0.1 0
0.4 0.1 0
0.2 0.1 0
0.3 0.1 0
0.2 0.2 0
0.3 0.2 0
0.3 0.1 0
0.4 0.1 0
0.3 0.2 0
0.4 0.2 0
0.2 0.2 0
0.3 0.2 0
0.2 0.3 0
0.3 0.3 0
0.3 0.2 0
0.4 0.2 0
0.3 0.3 0
0.4 0.3 0
0.2 0.3 0
0.3 0.3 0
0.2 0.4 0
0.3 0.4 0
0.3 0.3 0
0.4 0.3 0
0.3 0.4 0
0.4 0.4 0
0.2 0.4 0
0.3 0.4 0
0.2 0.5 0
0.3 0.5 0
0.3 0.4 0
0.4 0.4 0
0.3 0.5 0
0.4 0.5 0
0.2 0.5 0
0.3 0.5 0
0.2 0.6 0
0.3 0.6 0
0.3 0.5 0
0.4 0.5 0
0.3 0.6 0
0.4 0.6 0
0.4 0 0
0.5 0 0
0.4 0.1 0
0.5 0.1 0
0.5 0 0
0.6 0 0
0.5 0.1 0
0.6 0.1 0
0.4 0.1 0
0.5 0.1 0
0.4 0.2 0
0.5 0.2 0
0.5 0.1 0
0.6 0.1 0
0.5 0.2 0
0.6 0.2 0
0.4 0.2 0
0.5 0.2 0
0.4 0.3 0
0.5 0.3 0
0.5 0.2 0
0.6 0.2 0
0.5 0.3 0
0.6 0.3 0
0.4 0.3 0
0.5 0.3 0
0.4 0.4 0
0.5 0.4 0
0.5 0.3 0
0.6 0.3 0
0.5 0.4 0
0.6 0.4 0
0.4 0.4 0
0.5 0.4 0
0.4 0.5 0
0.5 0.5 0
0.5 0.4 0
0.6 0.4 0
0.5 0.5 0
0.6 0.5 0
0.4 0.5 0
0.5 0.5 0
0.4 0.6 0
0.5 0.6 0
0.5 0.5 0
0.6 0.5 0
0.5 0.6 0
0.6 0.6 0
0.6 0 0
0.7 0 0
0.6 0.1 0
0.7 0.1 0
0.7 0 0
0.8 0 0
0.7 0.1 0
0.8 0.1 0
0.6 0.1 0
0.7 0.1 0
0.6 0.2 0
0.7 0.2 0
0.7 0.1 0
0.8 0.1 0
0.7 0.2 0
0.8 0.2 0
0.6 0.2 0
0.7 0.2 0
0.6 0.3 0
0.7 0.3 0
0.7 0.2 0
0.8 0.2 0
0.7 0.3 0
0.8 0.3 0
0.6 0.3 0
0.7 0.3 0
0.6 0.4 0
0.7 0.4 0
0.7 0.3 0
0.8 0.3 0
0.7 0.4 0
0.8 0.4 0
0.6 0.4 0
0.7 0.4 0
0.6 0.5 0
0.7 0.5 0
0.7 0.4 0
0.8 0.4 0
0.7 0.5 0
0.8 0.5 0
0.6 0.5 0
0.7 0.5 0
0.6 0.6 0
0.7 0.6 0
0.7 0.5 0
0.8 0.5 0
0.7 0.6 0
0.8 0.6 0

CELLS 52 260
4	0	1	3	2
4	4	5	7	6
4	8	9	11	10
4	12	13	15	14
4	16	17	19	18
4	20	21	23	22
4	24	25	27	26
4	28	29	31	30
4	32	33	35	34
4	36	37	39	38
4	40	41	43	42
4	44	45	47	46
4	48	49	51	50
4	52	53	55	54
4	56	57	59	58
4	60	61	63	62
4	64	65	67	66
4	68	69	71	70
4	72	73	75	74
4	76	77	79	78
4	80	81	83	82
4	84	85	87	86
4	88	89	91	90
4	92	93	95	94
4	96	97	99	98
4	100	101	103	102
4	104	105	107	106
4	108	109	111	110
4	112	113	115	114
4	116	117	119	118
4	120	121	123	122
4	124	125	127	126
4	128	129	131	130
4	132	133	135	134
4	136	137	139	138
4	140	141	143	142
4	144	145	147	146
4	148	149	151	150
4	152	153	155	154
4	156	157	159	158
4	160	161	163	162
4	164	165	167	166
4	168	169	171	170
4	172	173	175	174
4	176	177	179	178
4	180	181	183	182
4	184	185	187	186
4	188	189	191	190
4	192	193	195	194
4	196	197	199	198
4	200	201	203	202
4	204	205	207	206

CELL_TYPES 52
 9 9 9 9 9 9 9 9 9 9 9 9 9 9 9 9 9 9 9 9 9 9 9 9 9 9 9 9 9 9 9 9 9 9 9 9 9 9 9 9 9 9 9 9 9 9 9 9 9 9 9 9
POINT_DATA 208
VECTORS velocity double
0 0 0
0.587785 0 0
0 -0.587785 0
0.479705 -0.472641 0
0 -0.587785 0
0.479705 -0.472641 0
0 -0.951057 0
0.190626 -0.76966 0
0 -0.951057 0
0.190626 -0.76966 0
0 -0.951057 0
-0.178139 -0.770489 0
0 -0.951057 0
-0.178139 -0.770489 0
0 -0.587785 0
-0.476075 -0.473724 0
0 -0.587785 0
-0.476075 -0.473724 0
0 -1.22465e-16 0
-0.587785 -9.9076e-17 0
-0.178139 -0.770489 0
-0.292775 -0.298887 0
-0.476075 -0.473724 0
-0.770537 -0.183748 0
-0.476075 -0.473724 0
-0.770537 -0.183748 0
-0.587785 -9.9076e-17 0
-0.951057 -3.78437e-17 0
-0.292775 -0.298887 0
-0.294683 0.295172 0
-0.770537 -0.183748 0
-0.769986 0.180692 0
-0.770537 -0.183748 0
-0.769986 0.180692 0
-0.951057 -3.78437e-17 0
-0.951057 3.78437e-17 0
-0.294683 0.295172 0
-0.18131 0.77522 0
-0.769986 0.180692 0
-0.474625 0.477953 0
-0.769986 0.180692 0
-0.474625 0.477953 0
-0.951057 3.78437e-17 0
-0.587785 9.9076e-17 0
0.587785 0 0
1.22465e-16 0 0
0.485701 0.478587 0
9.9076e-17 0.587785 0
0.485701 0.478587 0
9.9076e-17 0.587785 0
0.184365 0.773626 0
3.78437e-17 0.951057 0
0.184365 0.773626 0
3.78437e-17 0.951057 0
-0.18131 0.77522 0
-3.78437e-17 0.951057 0
-0.18131 0.77522 0
-3.78437e-17 0.951057 0
-0.474625 0.477953 0
-9.9076e-17 0.587785 0
-0.474625 0.477953 0
-9.9076e-17 0.587785 0
-0.587785 9.9076e-17 0
-1.22465e-16 1.22465e-16 0
0.587785 0 0
0.809017 0 0
0.544046 -0.24821 0
0.754371 -0.183398 0
0.809017 0 0
0.951057 0 0
0.754371 -0.183398 0
0.892728 -0.0975512 0
0.544046 -0.24821 0
0.754371 -0.183398 0
0.479705 -0.472641 0
0.655147 -0.346135 0
0.754371 -0.183398 0
0.892728 -0.0975512 0
0.655147 -0.346135 0
0.764921 -0.183565 0
0.479705 -0.472641 0
0.655147 -0.346135 0
0.33887 -0.652681 0
0.471679 -0.476012 0
0.655147 -0.346135 0
0.764921 -0.183565 0
0.471679 -0.476012 0
0.557351 -0.25098 0
0.33887 -0.652681 0
0.471679 -0.476012 0
0.190626 -0.76966 0
0.253922 -0.556528 0
0.471679 -0.476012 0
0.557351 -0.25098 0
0.253922 -0.556528 0
0.292347 -0.294502 0
0.190626 -0.76966 0
0.253922 -0.556528 0
-0.00134927 -0.810778 0
-0.00148965 -0.580748 0
0.253922 -0.556528 0
0.292347 -0.294502 0
-0.00148965 -0.580748 0
0.000666672 -0.312405 0
-0.00134927 -0.810778 0
-0.00148965 -0.580748 0
-0.178139 -0.770489 0
-0.247231 -0.551315 0
-0.00148965 -0.580748 0
0.000666672 -0.312405 0
-0.247231 -0.551315 0
-0.292775 -0.298887 0
0.951057 0 0
1 0 0
0.892728 -0.0975512 0
0.941423 -0.00123548 0
1 0 0
0.951057 0 0
0.941423 -0.00123548 0
0.897271 0.0935643 0
0.892728 -0.0975512 0
0.941423 -0.00123548 0
0.764921 -0.183565 0
0.803641 -0.0021392 0
0.941423 -0.00123548 0
0.897271 0.0935643 0
0.803641 -0.0021392 0
0.763389 0.179603 0
0.764921 -0.183565 0
0.803641 -0.0021392 0
0.557351 -0.25098 0
0.585062 -0.00192267 0
0.803641 -0.0021392 0
0.763389 0.179603 0
0.585062 -0.00192267 0
0.556776 0.24854 0
0.557351 -0.25098 0
0.585062 -0.00192267 0
0.292347 -0.294502 0
0.307975 -0.00131109 0
0.585062 -0.00192267 0
0.556776 0.24854 0
0.307975 -0.00131109 0
0.293042 0.291314 0
0.292347 -0.294502 0
0.307975 -0.00131109 0
0.000666672 -0.312405 0
0.00153117 -0.00127083 0
0.307975 -0.00131109 0
0.293042 0.291314 0
0.00153117 -0.00127083 0
-0.000552604 0.30819 0
0.000666672 -0.312405 0
0.00153117 -0.00127083 0
-0.292775 -0.298887 0
-0.309345 -0.000231962 0
0.00153117 -0.00127083 0
-0.000552604 0.30819 0
-0.309345 -0.000231962 0
-0.294683 0.295172 0
0.951057 0 0
0.809017 0 0
0.897271 0.0935643 0
0.76179 0.18516 0
0.809017 0 0
0.587785 0 0
0.76179 0.18516 0
0.546658 0.251544 0
0.897271 0.0935643 0
0.76179 0.18516 0
0.763389 0.179603 0
0.653662 0.345205 0
0.76179 0.18516 0
0.546658 0.251544 0
0.653662 0.345205 0
0.485701 0.478587 0
0.763389 0.179603 0
0.653662 0.345205 0
0.556776 0.24854 0
0.471701 0.470638 0
0.653662 0.345205 0
0.485701 0.478587 0
0.471701 0.470638 0
0.33769 0.659089 0
0.556776 0.24854 0
0.471701 0.470638 0
0.293042 0.291314 0
0.251087 0.556576 0
0.471701 0.470638 0
0.33769 0.659089 0
0.251087 0.556576 0
0.184365 0.773626 0
0.293042 0.291314 0
0.251087 0.556576 0
-0.000552604 0.30819 0
-0.00117892 0.582802 0
0.251087 0.556576 0
0.184365 0.773626 0
-0.00117892 0.582802 0
-0.00148855 0.81436 0
-0.000552604 0.30819 0
-0.00117892 0.582802 0
-0.294683 0.295172 0
-0.250044 0.551843 0
-0.00117892 0.582802 0
-0.00148855 0.81436 0
-0.250044 0.551843 0
-0.18131 0.77522 0
SCALARS pressure double 1
LOOKUP_TABLE default
-0.0141691 -0.00749573 0.617827 0.501217 0.617827 0.501217 1.0205 0.820507 1.0205 0.820507 1.01724 0.823647 1.01724 0.823647 0.620976 0.504094 0.620976 0.504094 -0.0173755 -0.00228661 0.823647 0.317195 0.504094 0.19891 0.504094 0.19891 -0.00228661 0.000289901 0.317195 -0.302784 0.19891 -0.19155 0.19891 -0.19155 0.000289901 -0.000832555 -0.302784 -0.816643 -0.19155 -0.510071 -0.19155 -0.510071 -0.000832555 -0.0100055 -0.0125866 -0.0271825 -0.505461 -0.630528 -0.505461 -0.630528 -0.81291 -1.02039 -0.81291 -1.02039 -0.816643 -1.01769 -0.816643 -1.01769 -0.510071 -0.632942 -0.510071 -0.632942 -0.0100055 -0.0193535 -0.00749573 -0.00350217 0.246861 0.181372 -0.00350217 0.00199865 0.181372 0.0988772 0.246861 0.181372 0.501217 0.348558 0.181372 0.0988772 0.348558 0.188899 0.501217 0.348558 0.660862 0.487198 0.348558 0.188899 0.487198 0.259158 0.660862 0.487198 0.820507 0.565993 0.487198 0.259158 0.565993 0.307655 0.820507 0.565993 0.822077 0.601771 0.565993 0.307655 0.601771 0.320426 0.822077 0.601771 0.823647 0.570421 0.601771 0.320426 0.570421 0.317195 0.00199865 0.00240639 0.0988772 0.00241337 0.00240639 -0.000584512 0.00241337 -0.0963541 0.0988772 0.00241337 0.188899 0.00347924 0.00241337 -0.0963541 0.00347924 -0.182153 0.188899 0.00347924 0.259158 0.00553226 0.00347924 -0.182153 0.00553226 -0.249747 0.259158 0.00553226 0.307655 0.00692395 0.00553226 -0.249747 0.00692395 -0.295036 0.307655 0.00692395 0.320426 0.00657168 0.00692395 -0.295036 0.00657168 -0.306382 0.320426 0.00657168 0.317195 0.00720539 0.00657168 -0.306382 0.00720539 -0.302784 -0.000584512 0.00676826 -0.0963541 -0.181576 0.00676826 -0.0125866 -0.181576 -0.259024 -0.0963541 -0.181576 -0.182153 -0.349871 -0.181576 -0.259024 -0.349871 -0.505461 -0.182153 -0.349871 -0.249747 -0.480482 -0.349871 -0.505461 -0.480482 -0.659186 -0.249747 -0.480482 -0.295036 -0.55797 -0.480482 -0.659186 -0.55797 -0.81291 -0.295036 -0.55797 -0.306382 -0.589995 -0.55797 -0.81291 -0.589995 -0.814777 -0.306382 -0.589995 -0.302784 -0.559713 -0.589995 -0.814777 -0.559713 -0.816643 
SCALARS temperature double 1
LOOKUP_TABLE default
0 0 0 0 0 0 0 0 0 0 0 0 0 0 0 0 0 0 0 0 0 0 0 0 0 0 0 0 0 0 0 0 0 0 0 0 0 0 0 0 0 0 0 0 0 0 0 0 0 0 0 0 0 0 0 0 0 0 0 0 0 0 0 0 0 0 0 0 0 0 0 0 0 0 0 0 0 0 0 0 0 0 0 0 0 0 0 0 0 0 0 0 0 0 0 0 0 0 0 0 0 0 0 0 0 0 0 0 0 0 0 0 0 0 0 0 0 0 0 0 0 0 0 0 0 0 0 0 0 0 0 0 0 0 0 0 0 0 0 0 0 0 0 0 0 0 0 0 0 0 0 0 0 0 0 0 0 0 0 0 0 0 0 0 0 0 0 0 0 0 0 0 0 0 0 0 0 0 0 0 0 0 0 0 0 0 0 0 0 0 0 0 0 0 0 0 0 0 0 0 0 0 0 0 0 0 0 0 
