# vtk DataFile Version 3.0
#This file was generated by the deal.II library on 2026/3/20 at 15:27:09
ASCII
DATASET UNSTRUCTURED_GRID

POINTS 4096 double
0 0 0
0.03125 0 0
0 0.03125 0
0.03125 0.03125 0
0.03125 0 0
0.0625 0 0
0.03125 0.03125 0
0.0625 0.03125 0
0 0.03125 0
0.03125 0.03125 0
0 0.0625 0
0.03125 0.0625 0
0.03125 0.03125 0
0.0625 0.03125 0
0.03125 0.0625 0
0.0625 0.0625 0
0.0625 0 0
0.09375 0 0
0.0625 0.03125 0
0.09375 0.03125 0
0.09375 0 0
0.125 0 0
0.09375 0.03125 0
0.125 0.03125 0
0.0625 0.03125 0
0.09375 0.03125 0
0.0625 0.0625 0
0.09375 0.0625 0
0.09375 0.03125 0
0.125 0.03125 0
0.09375 0.0625 0
0.125 0.0625 0
0 0.0625 0
0.03125 0.0625 0
0 0.09375 0
0.03125 0.09375 0
0.03125 0.0625 0
0.0625 0.0625 0
0.03125 0.09375 0
0.0625 0.09375 0
0 0.09375 0
0.03125 0.09375 0
0 0.125 0
0.03125 0.125 0
0.03125 0.09375 0
0.0625 0.09375 0
0.03125 0.125 0
0.0625 0.125 0
0.0625 0.0625 0
0.09375 0.0625 0
0.0625 0.09375 0
0.09375 0.09375 0
0.09375 0.0625 0
0.125 0.0625 0
0.09375 0.09375 0
0.125 0.09375 0
0.0625 0.09375 0
0.09375 0.09375 0
0.0625 0.125 0
0.09375 0.125 0
0.09375 0.09375 0
0.125 0.09375 0
0.09375 0.125 0
0.125 0.125 0
0.125 0 0
0.15625 0 0
0.125 0.03125 0
0.15625 0.03125 0
0.15625 0 0
0.1875 0 0
0.15625 0.03125 0
0.1875 0.03125 0
0.125 0.03125 0
0.15625 0.03125 0
0.125 0.0625 0
0.15625 0.0625 0
0.15625 0.03125 0
0.1875 0.03125 0
0.15625 0.0625 0
0.1875 0.0625 0
0.1875 0 0
0.21875 0 0
0.1875 0.03125 0
0.21875 0.03125 0
0.21875 0 0
0.25 0 0
0.21875 0.03125 0
0.25 0.03125 0
0.1875 0.03125 0
0.21875 0.03125 0
0.1875 0.0625 0
0.21875 0.0625 0
0.21875 0.03125 0
0.25 0.03125 0
0.21875 0.0625 0
0.25 0.0625 0
0.125 0.0625 0
0.15625 0.0625 0
0.125 0.09375 0
0.15625 0.09375 0
0.15625 0.0625 0
0.1875 0.0625 0
0.15625 0.09375 0
0.1875 0.09375 0
0.125 0.09375 0
0.15625 0.09375 0
0.125 0.125 0
0.15625 0.125 0
0.15625 0.09375 0
0.1875 0.09375 0
0.15625 0.125 0
0.1875 0.125 0
0.1875 0.0625 0
0.21875 0.0625 0
0.1875 0.09375 0
0.21875 0.09375 0
0.21875 0.0625 0
0.25 0.0625 0
0.21875 0.09375 0
0.25 0.09375 0
0.1875 0.09375 0
0.21875 0.09375 0
0.1875 0.125 0
0.21875 0.125 0
0.21875 0.09375 0
0.25 0.09375 0
0.21875 0.125 0
0.25 0.125 0
0 0.125 0
0.03125 0.125 0
0 0.15625 0
0.03125 0.15625 0
0.03125 0.125 0
0.0625 0.125 0
0.03125 0.15625 0
0.0625 0.15625 0
0 0.15625 0
0.03125 0.15625 0
0 0.1875 0
0.03125 0.1875 0
0.03125 0.15625 0
0.0625 0.15625 0
0.03125 0.1875 0
0.0625 0.1875 0
0.0625 0.125 0
0.09375 0.125 0
0.0625 0.15625 0
0.09375 0.15625 0
0.09375 0.125 0
0.125 0.125 0
0.09375 0.15625 0
0.125 0.15625 0
0.0625 0.15625 0
0.09375 0.15625 0
0.0625 0.1875 0
0.09375 0.1875 0
0.09375 0.15625 0
0.125 0.15625 0
0.09375 0.1875 0
0.125 0.1875 0
0 0.1875 0
0.03125 0.1875 0
0 0.21875 0
0.03125 0.21875 0
0.03125 0.1875 0
0.0625 0.1875 0
0.03125 0.21875 0
0.0625 0.21875 0
0 0.21875 0
0.03125 0.21875 0
0 0.25 0
0.03125 0.25 0
0.03125 0.21875 0
0.0625 0.21875 0
0.03125 0.25 0
0.0625 0.25 0
0.0625 0.1875 0
0.09375 0.1875 0
0.0625 0.21875 0
0.09375 0.21875 0
0.09375 0.1875 0
0.125 0.1875 0
0.09375 0.21875 0
0.125 0.21875 0
0.0625 0.21875 0
0.09375 0.21875 0
0.0625 0.25 0
0.09375 0.25 0
0.09375 0.21875 0
0.125 0.21875 0
0.09375 0.25 0
0.125 0.25 0
0.125 0.125 0
0.15625 0.125 0
0.125 0.15625 0
0.15625 0.15625 0
0.15625 0.125 0
0.1875 0.125 0
0.15625 0.15625 0
0.1875 0.15625 0
0.125 0.15625 0
0.15625 0.15625 0
0.125 0.1875 0
0.15625 0.1875 0
0.15625 0.15625 0
0.1875 0.15625 0
0.15625 0.1875 0
0.1875 0.1875 0
0.1875 0.125 0
0.21875 0.125 0
0.1875 0.15625 0
0.21875 0.15625 0
0.21875 0.125 0
0.25 0.125 0
0.21875 0.15625 0
0.25 0.15625 0
0.1875 0.15625 0
0.21875 0.15625 0
0.1875 0.1875 0
0.21875 0.1875 0
0.21875 0.15625 0
0.25 0.15625 0
0.21875 0.1875 0
0.25 0.1875 0
0.125 0.1875 0
0.15625 0.1875 0
0.125 0.21875 0
0.15625 0.21875 0
0.15625 0.1875 0
0.1875 0.1875 0
0.15625 0.21875 0
0.1875 0.21875 0
0.125 0.21875 0
0.15625 0.21875 0
0.125 0.25 0
0.15625 0.25 0
0.15625 0.21875 0
0.1875 0.21875 0
0.15625 0.25 0
0.1875 0.25 0
0.1875 0.1875 0
0.21875 0.1875 0
0.1875 0.21875 0
0.21875 0.21875 0
0.21875 0.1875 0
0.25 0.1875 0
0.21875 0.21875 0
0.25 0.21875 0
0.1875 0.21875 0
0.21875 0.21875 0
0.1875 0.25 0
0.21875 0.25 0
0.21875 0.21875 0
0.25 0.21875 0
0.21875 0.25 0
0.25 0.25 0
0.25 0 0
0.28125 0 0
0.25 0.03125 0
0.28125 0.03125 0
0.28125 0 0
0.3125 0 0
0.28125 0.03125 0
0.3125 0.03125 0
0.25 0.03125 0
0.28125 0.03125 0
0.25 0.0625 0
0.28125 0.0625 0
0.28125 0.03125 0
0.3125 0.03125 0
0.28125 0.0625 0
0.3125 0.0625 0
0.3125 0 0
0.34375 0 0
0.3125 0.03125 0
0.34375 0.03125 0
0.34375 0 0
0.375 0 0
0.34375 0.03125 0
0.375 0.03125 0
0.3125 0.03125 0
0.34375 0.03125 0
0.3125 0.0625 0
0.34375 0.0625 0
0.34375 0.03125 0
0.375 0.03125 0
0.34375 0.0625 0
0.375 0.0625 0
0.25 0.0625 0
0.28125 0.0625 0
0.25 0.09375 0
0.28125 0.09375 0
0.28125 0.0625 0
0.3125 0.0625 0
0.28125 0.09375 0
0.3125 0.09375 0
0.25 0.09375 0
0.28125 0.09375 0
0.25 0.125 0
0.28125 0.125 0
0.28125 0.09375 0
0.3125 0.09375 0
0.28125 0.125 0
0.3125 0.125 0
0.3125 0.0625 0
0.34375 0.0625 0
0.3125 0.09375 0
0.34375 0.09375 0
0.34375 0.0625 0
0.375 0.0625 0
0.34375 0.09375 0
0.375 0.09375 0
0.3125 0.09375 0
0.34375 0.09375 0
0.3125 0.125 0
0.34375 0.125 0
0.34375 0.09375 0
0.375 0.09375 0
0.34375 0.125 0
0.375 0.125 0
0.375 0 0
0.40625 0 0
0.375 0.03125 0
0.40625 0.03125 0
0.40625 0 0
0.4375 0 0
0.40625 0.03125 0
0.4375 0.03125 0
0.375 0.03125 0
0.40625 0.03125 0
0.375 0.0625 0
0.40625 0.0625 0
0.40625 0.03125 0
0.4375 0.03125 0
0.40625 0.0625 0
0.4375 0.0625 0
0.4375 0 0
0.46875 0 0
0.4375 0.03125 0
0.46875 0.03125 0
0.46875 0 0
0.5 0 0
0.46875 0.03125 0
0.5 0.03125 0
0.4375 0.03125 0
0.46875 0.03125 0
0.4375 0.0625 0
0.46875 0.0625 0
0.46875 0.03125 0
0.5 0.03125 0
0.46875 0.0625 0
0.5 0.0625 0
0.375 0.0625 0
0.40625 0.0625 0
0.375 0.09375 0
0.40625 0.09375 0
0.40625 0.0625 0
0.4375 0.0625 0
0.40625 0.09375 0
0.4375 0.09375 0
0.375 0.09375 0
0.40625 0.09375 0
0.375 0.125 0
0.40625 0.125 0
0.40625 0.09375 0
0.4375 0.09375 0
0.40625 0.125 0
0.4375 0.125 0
0.4375 0.0625 0
0.46875 0.0625 0
0.4375 0.09375 0
0.46875 0.09375 0
0.46875 0.0625 0
0.5 0.0625 0
0.46875 0.09375 0
0.5 0.09375 0
0.4375 0.09375 0
0.46875 0.09375 0
0.4375 0.125 0
0.46875 0.125 0
0.46875 0.09375 0
0.5 0.09375 0
0.46875 0.125 0
0.5 0.125 0
0.25 0.125 0
0.28125 0.125 0
0.25 0.15625 0
0.28125 0.15625 0
0.28125 0.125 0
0.3125 0.125 0
0.28125 0.15625 0
0.3125 0.15625 0
0.25 0.15625 0
0.28125 0.15625 0
0.25 0.1875 0
0.28125 0.1875 0
0.28125 0.15625 0
0.3125 0.15625 0
0.28125 0.1875 0
0.3125 0.1875 0
0.3125 0.125 0
0.34375 0.125 0
0.3125 0.15625 0
0.34375 0.15625 0
0.34375 0.125 0
0.375 0.125 0
0.34375 0.15625 0
0.375 0.15625 0
0.3125 0.15625 0
0.34375 0.15625 0
0.3125 0.1875 0
0.34375 0.1875 0
0.34375 0.15625 0
0.375 0.15625 0
0.34375 0.1875 0
0.375 0.1875 0
0.25 0.1875 0
0.28125 0.1875 0
0.25 0.21875 0
0.28125 0.21875 0
0.28125 0.1875 0
0.3125 0.1875 0
0.28125 0.21875 0
0.3125 0.21875 0
0.25 0.21875 0
0.28125 0.21875 0
0.25 0.25 0
0.28125 0.25 0
0.28125 0.21875 0
0.3125 0.21875 0
0.28125 0.25 0
0.3125 0.25 0
0.3125 0.1875 0
0.34375 0.1875 0
0.3125 0.21875 0
0.34375 0.21875 0
0.34375 0.1875 0
0.375 0.1875 0
0.34375 0.21875 0
0.375 0.21875 0
0.3125 0.21875 0
0.34375 0.21875 0
0.3125 0.25 0
0.34375 0.25 0
0.34375 0.21875 0
0.375 0.21875 0
0.34375 0.25 0
0.375 0.25 0
0.375 0.125 0
0.40625 0.125 0
0.375 0.15625 0
0.40625 0.15625 0
0.40625 0.125 0
0.4375 0.125 0
0.40625 0.15625 0
0.4375 0.15625 0
0.375 0.15625 0
0.40625 0.15625 0
0.375 0.1875 0
0.40625 0.1875 0
0.40625 0.15625 0
0.4375 0.15625 0
0.40625 0.1875 0
0.4375 0.1875 0
0.4375 0.125 0
0.46875 0.125 0
0.4375 0.15625 0
0.46875 0.15625 0
0.46875 0.125 0
0.5 0.125 0
0.46875 0.15625 0
0.5 0.15625 0
0.4375 0.15625 0
0.46875 0.15625 0
0.4375 0.1875 0
0.46875 0.1875 0
0.46875 0.15625 0
0.5 0.15625 0
0.46875 0.1875 0
0.5 0.1875 0
0.375 0.1875 0
0.40625 0.1875 0
0.375 0.21875 0
0.40625 0.21875 0
0.40625 0.1875 0
0.4375 0.1875 0
0.40625 0.21875 0
0.4375 0.21875 0
0.375 0.21875 0
0.40625 0.21875 0
0.375 0.25 0
0.40625 0.25 0
0.40625 0.21875 0
0.4375 0.21875 0
0.40625 0.25 0
0.4375 0.25 0
0.4375 0.1875 0
0.46875 0.1875 0
0.4375 0.21875 0
0.46875 0.21875 0
0.46875 0.1875 0
0.5 0.1875 0
0.46875 0.21875 0
0.5 0.21875 0
0.4375 0.21875 0
0.46875 0.21875 0
0.4375 0.25 0
0.46875 0.25 0
0.46875 0.21875 0
0.5 0.21875 0
0.46875 0.25 0
0.5 0.25 0
0 0.25 0
0.03125 0.25 0
0 0.28125 0
0.03125 0.28125 0
0.03125 0.25 0
0.0625 0.25 0
0.03125 0.28125 0
0.0625 0.28125 0
0 0.28125 0
0.03125 0.28125 0
0 0.3125 0
0.03125 0.3125 0
0.03125 0.28125 0
0.0625 0.28125 0
0.03125 0.3125 0
0.0625 0.3125 0
0.0625 0.25 0
0.09375 0.25 0
0.0625 0.28125 0
0.09375 0.28125 0
0.09375 0.25 0
0.125 0.25 0
0.09375 0.28125 0
0.125 0.28125 0
0.0625 0.28125 0
0.09375 0.28125 0
0.0625 0.3125 0
0.09375 0.3125 0
0.09375 0.28125 0
0.125 0.28125 0
0.09375 0.3125 0
0.125 0.3125 0
0 0.3125 0
0.03125 0.3125 0
0 0.34375 0
0.03125 0.34375 0
0.03125 0.3125 0
0.0625 0.3125 0
0.03125 0.34375 0
0.0625 0.34375 0
0 0.34375 0
0.03125 0.34375 0
0 0.375 0
0.03125 0.375 0
0.03125 0.34375 0
0.0625 0.34375 0
0.03125 0.375 0
0.0625 0.375 0
0.0625 0.3125 0
0.09375 0.3125 0
0.0625 0.34375 0
0.09375 0.34375 0
0.09375 0.3125 0
0.125 0.3125 0
0.09375 0.34375 0
0.125 0.34375 0
0.0625 0.34375 0
0.09375 0.34375 0
0.0625 0.375 0
0.09375 0.375 0
0.09375 0.34375 0
0.125 0.34375 0
0.09375 0.375 0
0.125 0.375 0
0.125 0.25 0
0.15625 0.25 0
0.125 0.28125 0
0.15625 0.28125 0
0.15625 0.25 0
0.1875 0.25 0
0.15625 0.28125 0
0.1875 0.28125 0
0.125 0.28125 0
0.15625 0.28125 0
0.125 0.3125 0
0.15625 0.3125 0
0.15625 0.28125 0
0.1875 0.28125 0
0.15625 0.3125 0
0.1875 0.3125 0
0.1875 0.25 0
0.21875 0.25 0
0.1875 0.28125 0
0.21875 0.28125 0
0.21875 0.25 0
0.25 0.25 0
0.21875 0.28125 0
0.25 0.28125 0
0.1875 0.28125 0
0.21875 0.28125 0
0.1875 0.3125 0
0.21875 0.3125 0
0.21875 0.28125 0
0.25 0.28125 0
0.21875 0.3125 0
0.25 0.3125 0
0.125 0.3125 0
0.15625 0.3125 0
0.125 0.34375 0
0.15625 0.34375 0
0.15625 0.3125 0
0.1875 0.3125 0
0.15625 0.34375 0
0.1875 0.34375 0
0.125 0.34375 0
[...]
POINT_DATA 4096
VECTORS velocity double
0 0 0
0 0 0
0.121094 0 0
0.121094 6.78219e-16 0
0 0 0
0 0 0
0.121094 6.78219e-16 0
0.121094 1.68161e-16 0
0.121094 0 0
0.121094 6.78219e-16 0
0.234375 0 0
0.234375 -1.2771e-15 0
0.121094 6.78219e-16 0
0.121094 1.68161e-16 0
0.234375 -1.2771e-15 0
0.234375 -2.27774e-16 0
0 0 0
0 0 0
0.121094 1.68161e-16 0
0.121094 6.21452e-16 0
0 0 0
0 0 0
0.121094 6.21452e-16 0
0.121094 6.9207e-16 0
0.121094 1.68161e-16 0
0.121094 6.21452e-16 0
0.234375 -2.27774e-16 0
0.234375 2.58956e-16 0
0.121094 6.21452e-16 0
0.121094 6.9207e-16 0
0.234375 2.58956e-16 0
0.234375 9.16365e-16 0
0.234375 0 0
0.234375 -1.2771e-15 0
0.339844 0 0
0.339844 -8.30864e-16 0
0.234375 -1.2771e-15 0
0.234375 -2.27774e-16 0
0.339844 -8.30864e-16 0
0.339844 1.60575e-16 0
0.339844 0 0
0.339844 -8.30864e-16 0
0.4375 0 0
0.4375 -3.35644e-16 0
0.339844 -8.30864e-16 0
0.339844 1.60575e-16 0
0.4375 -3.35644e-16 0
0.4375 7.71147e-16 0
0.234375 -2.27774e-16 0
0.234375 2.58956e-16 0
0.339844 1.60575e-16 0
0.339844 6.98466e-16 0
0.234375 2.58956e-16 0
0.234375 9.16365e-16 0
0.339844 6.98466e-16 0
0.339844 1.34307e-15 0
0.339844 1.60575e-16 0
0.339844 6.98466e-16 0
0.4375 7.71147e-16 0
0.4375 1.46533e-15 0
0.339844 6.98466e-16 0
0.339844 1.34307e-15 0
0.4375 1.46533e-15 0
0.4375 1.9179e-15 0
0 0 0
0 0 0
0.121094 6.9207e-16 0
0.121094 6.73771e-16 0
0 0 0
0 0 0
0.121094 6.73771e-16 0
0.121094 7.32311e-16 0
0.121094 6.9207e-16 0
0.121094 6.73771e-16 0
0.234375 9.16365e-16 0
0.234375 1.03398e-15 0
0.121094 6.73771e-16 0
0.121094 7.32311e-16 0
0.234375 1.03398e-15 0
0.234375 1.46882e-15 0
0 0 0
0 0 0
0.121094 7.32311e-16 0
0.121094 6.34645e-16 0
0 0 0
0 0 0
0.121094 6.34645e-16 0
0.121094 6.50444e-16 0
0.121094 7.32311e-16 0
0.121094 6.34645e-16 0
0.234375 1.46882e-15 0
0.234375 1.49426e-15 0
0.121094 6.34645e-16 0
0.121094 6.50444e-16 0
0.234375 1.49426e-15 0
0.234375 1.49407e-15 0
0.234375 9.16365e-16 0
0.234375 1.03398e-15 0
0.339844 1.34307e-15 0
0.339844 1.54541e-15 0
0.234375 1.03398e-15 0
0.234375 1.46882e-15 0
0.339844 1.54541e-15 0
0.339844 1.68065e-15 0
0.339844 1.34307e-15 0
0.339844 1.54541e-15 0
0.4375 1.9179e-15 0
0.4375 2.06741e-15 0
0.339844 1.54541e-15 0
0.339844 1.68065e-15 0
0.4375 2.06741e-15 0
0.4375 2.10755e-15 0
0.234375 1.46882e-15 0
0.234375 1.49426e-15 0
0.339844 1.68065e-15 0
0.339844 1.81041e-15 0
0.234375 1.49426e-15 0
0.234375 1.49407e-15 0
0.339844 1.81041e-15 0
0.339844 1.78167e-15 0
0.339844 1.68065e-15 0
0.339844 1.81041e-15 0
0.4375 2.10755e-15 0
0.4375 2.33829e-15 0
0.339844 1.81041e-15 0
0.339844 1.78167e-15 0
0.4375 2.33829e-15 0
0.4375 2.0024e-15 0
0.4375 0 0
0.4375 -3.35644e-16 0
0.527344 0 0
0.527344 6.96215e-17 0
0.4375 -3.35644e-16 0
0.4375 7.71147e-16 0
0.527344 6.96215e-17 0
0.527344 1.13045e-15 0
0.527344 0 0
0.527344 6.96215e-17 0
0.609375 0 0
0.609375 5.10187e-16 0
0.527344 6.96215e-17 0
0.527344 1.13045e-15 0
0.609375 5.10187e-16 0
0.609375 1.26298e-15 0
0.4375 7.71147e-16 0
0.4375 1.46533e-15 0
0.527344 1.13045e-15 0
0.527344 1.98245e-15 0
0.4375 1.46533e-15 0
0.4375 1.9179e-15 0
0.527344 1.98245e-15 0
0.527344 2.47911e-15 0
0.527344 1.13045e-15 0
0.527344 1.98245e-15 0
0.609375 1.26298e-15 0
0.609375 2.06147e-15 0
0.527344 1.98245e-15 0
0.527344 2.47911e-15 0
0.609375 2.06147e-15 0
0.609375 2.40944e-15 0
0.609375 0 0
0.609375 5.10187e-16 0
0.683594 0 0
0.683594 4.92537e-16 0
0.609375 5.10187e-16 0
0.609375 1.26298e-15 0
0.683594 4.92537e-16 0
0.683594 1.42726e-15 0
0.683594 0 0
0.683594 4.92537e-16 0
0.75 0 0
0.75 3.91461e-16 0
0.683594 4.92537e-16 0
0.683594 1.42726e-15 0
0.75 3.91461e-16 0
0.75 1.44874e-15 0
0.609375 1.26298e-15 0
0.609375 2.06147e-15 0
0.683594 1.42726e-15 0
0.683594 1.80233e-15 0
0.609375 2.06147e-15 0
0.609375 2.40944e-15 0
0.683594 1.80233e-15 0
0.683594 1.99678e-15 0
0.683594 1.42726e-15 0
0.683594 1.80233e-15 0
0.75 1.44874e-15 0
0.75 1.35567e-15 0
0.683594 1.80233e-15 0
0.683594 1.99678e-15 0
0.75 1.35567e-15 0
0.75 1.24708e-15 0
0.4375 1.9179e-15 0
0.4375 2.06741e-15 0
0.527344 2.47911e-15 0
0.527344 2.10688e-15 0
0.4375 2.06741e-15 0
0.4375 2.10755e-15 0
0.527344 2.10688e-15 0
0.527344 2.46456e-15 0
0.527344 2.47911e-15 0
0.527344 2.10688e-15 0
0.609375 2.40944e-15 0
0.609375 2.21277e-15 0
0.527344 2.10688e-15 0
0.527344 2.46456e-15 0
0.609375 2.21277e-15 0
0.609375 1.96825e-15 0
0.4375 2.10755e-15 0
0.4375 2.33829e-15 0
0.527344 2.46456e-15 0
0.527344 2.21622e-15 0
0.4375 2.33829e-15 0
0.4375 2.0024e-15 0
0.527344 2.21622e-15 0
0.527344 2.20147e-15 0
0.527344 2.46456e-15 0
0.527344 2.21622e-15 0
0.609375 1.96825e-15 0
0.609375 1.88287e-15 0
0.527344 2.21622e-15 0
0.527344 2.20147e-15 0
0.609375 1.88287e-15 0
0.609375 1.69941e-15 0
0.609375 2.40944e-15 0
0.609375 2.21277e-15 0
0.683594 1.99678e-15 0
0.683594 1.7357e-15 0
0.609375 2.21277e-15 0
0.609375 1.96825e-15 0
0.683594 1.7357e-15 0
0.683594 1.31746e-15 0
0.683594 1.99678e-15 0
0.683594 1.7357e-15 0
0.75 1.24708e-15 0
0.75 5.46654e-16 0
0.683594 1.7357e-15 0
0.683594 1.31746e-15 0
0.75 5.46654e-16 0
0.75 4.0368e-16 0
0.609375 1.96825e-15 0
0.609375 1.88287e-15 0
0.683594 1.31746e-15 0
0.683594 1.26229e-15 0
0.609375 1.88287e-15 0
0.609375 1.69941e-15 0
0.683594 1.26229e-15 0
0.683594 9.45646e-16 0
0.683594 1.31746e-15 0
0.683594 1.26229e-15 0
0.75 4.0368e-16 0
0.75 6.71797e-17 0
0.683594 1.26229e-15 0
0.683594 9.45646e-16 0
0.75 6.71797e-17 0
0.75 2.35895e-16 0
0 0 0
0 0 0
0.121094 6.50444e-16 0
0.121094 5.44114e-16 0
0 0 0
0 0 0
0.121094 5.44114e-16 0
0.121094 5.71674e-16 0
0.121094 6.50444e-16 0
0.121094 5.44114e-16 0
0.234375 1.49407e-15 0
0.234375 1.50758e-15 0
0.121094 5.44114e-16 0
0.121094 5.71674e-16 0
0.234375 1.50758e-15 0
0.234375 1.57522e-15 0
0 0 0
0 0 0
0.121094 5.71674e-16 0
0.121094 3.76226e-16 0
0 0 0
0 0 0
0.121094 3.76226e-16 0
0.121094 4.87474e-16 0
0.121094 5.71674e-16 0
0.121094 3.76226e-16 0
0.234375 1.57522e-15 0
0.234375 1.38681e-15 0
0.121094 3.76226e-16 0
0.121094 4.87474e-16 0
0.234375 1.38681e-15 0
0.234375 1.50031e-15 0
0.234375 1.49407e-15 0
0.234375 1.50758e-15 0
0.339844 1.78167e-15 0
0.339844 1.87157e-15 0
0.234375 1.50758e-15 0
0.234375 1.57522e-15 0
0.339844 1.87157e-15 0
0.339844 1.86187e-15 0
0.339844 1.78167e-15 0
0.339844 1.87157e-15 0
0.4375 2.0024e-15 0
0.4375 2.13311e-15 0
0.339844 1.87157e-15 0
0.339844 1.86187e-15 0
0.4375 2.13311e-15 0
0.4375 2.09829e-15 0
0.234375 1.57522e-15 0
0.234375 1.38681e-15 0
0.339844 1.86187e-15 0
0.339844 1.87785e-15 0
0.234375 1.38681e-15 0
0.234375 1.50031e-15 0
0.339844 1.87785e-15 0
0.339844 1.9148e-15 0
0.339844 1.86187e-15 0
0.339844 1.87785e-15 0
0.4375 2.09829e-15 0
0.4375 2.18159e-15 0
0.339844 1.87785e-15 0
0.339844 1.9148e-15 0
0.4375 2.18159e-15 0
0.4375 2.07537e-15 0
0 0 0
0 0 0
0.121094 4.87474e-16 0
0.121094 2.43061e-16 0
0 0 0
0 0 0
0.121094 2.43061e-16 0
0.121094 3.10819e-16 0
0.121094 4.87474e-16 0
0.121094 2.43061e-16 0
0.234375 1.50031e-15 0
0.234375 1.30558e-15 0
0.121094 2.43061e-16 0
0.121094 3.10819e-16 0
0.234375 1.30558e-15 0
0.234375 1.23737e-15 0
0 0 0
0 0 0
0.121094 3.10819e-16 0
0.121094 6.80773e-17 0
0 0 0
0 0 0
0.121094 6.80773e-17 0
0.121094 8.04396e-17 0
0.121094 3.10819e-16 0
0.121094 6.80773e-17 0
0.234375 1.23737e-15 0
0.234375 8.11681e-16 0
0.121094 6.80773e-17 0
0.121094 8.04396e-17 0
0.234375 8.11681e-16 0
0.234375 7.82328e-16 0
0.234375 1.50031e-15 0
0.234375 1.30558e-15 0
0.339844 1.9148e-15 0
0.339844 1.93149e-15 0
0.234375 1.30558e-15 0
0.234375 1.23737e-15 0
0.339844 1.93149e-15 0
0.339844 1.61241e-15 0
0.339844 1.9148e-15 0
0.339844 1.93149e-15 0
0.4375 2.07537e-15 0
0.4375 2.41341e-15 0
0.339844 1.93149e-15 0
0.339844 1.61241e-15 0
0.4375 2.41341e-15 0
0.4375 1.81111e-15 0
0.234375 1.23737e-15 0
0.234375 8.11681e-16 0
0.339844 1.61241e-15 0
0.339844 1.47029e-15 0
0.234375 8.11681e-16 0
0.234375 7.82328e-16 0
0.339844 1.47029e-15 0
0.339844 9.43943e-16 0
0.339844 1.61241e-15 0
0.339844 1.47029e-15 0
0.4375 1.81111e-15 0
0.4375 1.86011e-15 0
0.339844 1.47029e-15 0
0.339844 9.43943e-16 0
0.4375 1.86011e-15 0
0.4375 1.32097e-15 0
0.4375 2.0024e-15 0
0.4375 2.13311e-15 0
0.527344 2.20147e-15 0
0.527344 1.93157e-15 0
0.4375 2.13311e-15 0
0.4375 2.09829e-15 0
0.527344 1.93157e-15 0
0.527344 2.372e-15 0
0.527344 2.20147e-15 0
0.527344 1.93157e-15 0
0.609375 1.69941e-15 0
0.609375 1.87335e-15 0
0.527344 1.93157e-15 0
0.527344 2.372e-15 0
0.609375 1.87335e-15 0
0.609375 1.92247e-15 0
0.4375 2.09829e-15 0
0.4375 2.18159e-15 0
0.527344 2.372e-15 0
0.527344 2.20768e-15 0
0.4375 2.18159e-15 0
0.4375 2.07537e-15 0
0.527344 2.20768e-15 0
0.527344 2.4728e-15 0
0.527344 2.372e-15 0
0.527344 2.20768e-15 0
0.609375 1.92247e-15 0
0.609375 2.38311e-15 0
0.527344 2.20768e-15 0
0.527344 2.4728e-15 0
0.609375 2.38311e-15 0
0.609375 2.52866e-15 0
0.609375 1.69941e-15 0
0.609375 1.87335e-15 0
0.683594 9.45646e-16 0
0.683594 1.40943e-15 0
0.609375 1.87335e-15 0
0.609375 1.92247e-15 0
0.683594 1.40943e-15 0
0.683594 1.51874e-15 0
0.683594 9.45646e-16 0
0.683594 1.40943e-15 0
0.75 2.35895e-16 0
0.75 2.54852e-16 0
0.683594 1.40943e-15 0
0.683594 1.51874e-15 0
0.75 2.54852e-16 0
0.75 1.34364e-15 0
0.609375 1.92247e-15 0
0.609375 2.38311e-15 0
0.683594 1.51874e-15 0
0.683594 2.1691e-15 0
0.609375 2.38311e-15 0
0.609375 2.52866e-15 0
0.683594 2.1691e-15 0
0.683594 2.39063e-15 0
0.683594 1.51874e-15 0
0.683594 2.1691e-15 0
0.75 1.34364e-15 0
0.75 1.48827e-15 0
0.683594 2.1691e-15 0
0.683594 2.39063e-15 0
0.75 1.48827e-15 0
0.75 2.45762e-15 0
0.4375 2.07537e-15 0
0.4375 2.41341e-15 0
0.527344 2.4728e-15 0
0.527344 2.48179e-15 0
0.4375 2.41341e-15 0
0.4375 1.81111e-15 0
0.527344 2.48179e-15 0
0.527344 2.49146e-15 0
0.527344 2.4728e-15 0
0.527344 2.48179e-15 0
0.609375 2.52866e-15 0
0.609375 2.83215e-15 0
0.527344 2.48179e-15 0
0.527344 2.49146e-15 0
0.609375 2.83215e-15 0
0.609375 2.51799e-15 0
0.4375 1.81111e-15 0
0.4375 1.86011e-15 0
0.527344 2.49146e-15 0
0.527344 1.97441e-15 0
0.4375 1.86011e-15 0
0.4375 1.32097e-15 0
0.527344 1.97441e-15 0
0.527344 1.79166e-15 0
0.527344 2.49146e-15 0
0.527344 1.97441e-15 0
0.609375 2.51799e-15 0
0.609375 2.34154e-15 0
0.527344 1.97441e-15 0
0.527344 1.79166e-15 0
0.609375 2.34154e-15 0
0.609375 2.02696e-15 0
0.609375 2.52866e-15 0
0.609375 2.83215e-15 0
0.683594 2.39063e-15 0
0.683594 2.72049e-15 0
0.609375 2.83215e-15 0
0.609375 2.51799e-15 0
0.683594 2.72049e-15 0
0.683594 2.89405e-15 0
0.683594 2.39063e-15 0
0.683594 2.72049e-15 0
0.75 2.45762e-15 0
0.75 2.51438e-15 0
0.683594 2.72049e-15 0
0.683594 2.89405e-15 0
0.75 2.51438e-15 0
0.75 3.04821e-15 0
0.609375 2.51799e-15 0
0.609375 2.34154e-15 0
0.683594 2.89405e-15 0
0.683594 2.55055e-15 0
0.609375 2.34154e-15 0
0.609375 2.02696e-15 0
0.683594 2.55055e-15 0
0.683594 2.17381e-15 0
0.683594 2.89405e-15 0
0.683594 2.55055e-15 0
0.75 3.04821e-15 0
0.75 2.59302e-15 0
0.683594 2.55055e-15 0
0.683594 2.17381e-15 0
0.75 2.59302e-15 0
0.75 2.453e-15 0
0.75 0 0
0.75 3.91461e-16 0
0.808594 0 0
0.808594 8.79016e-16 0
0.75 3.91461e-16 0
0.75 1.44874e-15 0
0.808594 8.79016e-16 0
0.808594 9.14276e-16 0
0.808594 0 0
0.808594 8.79016e-16 0
0.859375 0 0
0.859375 8.4073e-16 0
0.808594 8.79016e-16 0
0.808594 9.14276e-16 0
0.859375 8.4073e-16 0
0.859375 8.45026e-16 0
0.75 1.44874e-15 0
0.75 1.35567e-15 0
0.808594 9.14276e-16 0
0.808594 1.1265e-15 0
0.75 1.35567e-15 0
0.75 1.24708e-15 0
0.808594 1.1265e-15 0
0.808594 2.74583e-16 0
0.808594 9.14276e-16 0
0.808594 1.1265e-15 0
0.859375 8.45026e-16 0
0.859375 5.57203e-16 0
0.808594 1.1265e-15 0
0.808594 2.74583e-16 0
0.859375 5.57203e-16 0
0.859375 -4.97081e-16 0
0.859375 0 0
0.859375 8.4073e-16 0
0.902344 0 0
0.902344 6.65185e-16 0
0.859375 8.4073e-16 0
0.859375 8.45026e-16 0
0.902344 6.65185e-16 0
0.902344 5.93706e-16 0
0.902344 0 0
0.902344 6.65185e-16 0
0.9375 0 0
0.9375 8.6248e-16 0
0.902344 6.65185e-16 0
0.902344 5.93706e-16 0
0.9375 8.6248e-16 0
0.9375 3.29454e-16 0
0.859375 8.45026e-16 0
0.859375 5.57203e-16 0
0.902344 5.93706e-16 0
0.902344 1.80647e-17 0
0.859375 5.57203e-16 0
0.859375 -4.97081e-16 0
0.902344 1.80647e-17 0
0.902344 -9.54234e-16 0
0.902344 5.93706e-16 0
0.902344 1.80647e-17 0
0.9375 3.29454e-16 0
0.9375 -2.46605e-16 0
0.902344 1.80647e-17 0
0.902344 -9.54234e-16 0
0.9375 -2.46605e-16 0
0.9375 -1.49162e-15 0
0.75 1.24708e-15 0
0.75 5.46654e-16 0
0.808594 2.74583e-16 0
0.808594 -2.7453e-16 0
0.75 5.46654e-16 0
0.75 4.0368e-16 0
0.808594 -2.7453e-16 0
0.808594 -1.02162e-15 0
0.808594 2.74583e-16 0
0.808594 -2.7453e-16 0
0.859375 -4.97081e-16 0
0.859375 -1.12106e-15 0
0.808594 -2.7453e-16 0
0.808594 -1.02162e-15 0
0.859375 -1.12106e-15 0
0.859375 -2.18007e-15 0
0.75 4.0368e-16 0
0.75 6.71797e-17 0
0.808594 -1.02162e-15 0
0.808594 -9.76653e-16 0
0.75 6.71797e-17 0
0.75 2.35895e-16 0
0.808594 -9.76653e-16 0
0.808594 -9.71134e-16 0
0.808594 -1.02162e-15 0
0.808594 -9.76653e-16 0
0.859375 -2.18007e-15 0
0.859375 -2.26891e-15 0
0.808594 -9.76653e-16 0
0.808594 -9.71134e-16 0
0.859375 -2.26891e-15 0
0.859375 -1.90514e-15 0
0.859375 -4.97081e-16 0
0.859375 -1.12106e-15 0
0.902344 -9.54234e-16 0
0.902344 -2.12953e-15 0
0.859375 -1.12106e-15 0
0.859375 -2.18007e-15 0
0.902344 -2.12953e-15 0
0.902344 -2.54997e-15 0
0.902344 -9.54234e-16 0
0.902344 -2.12953e-15 0
0.9375 -1.49162e-15 0
0.9375 -2.12923e-15 0
0.902344 -2.12953e-15 0
0.902344 -2.54997e-15 0
0.9375 -2.12923e-15 0
0.9375 -2.97445e-15 0
0.859375 -2.18007e-15 0
0.859375 -2.26891e-15 0
0.902344 -2.54997e-15 0
0.902344 -3.18746e-15 0
0.859375 -2.26891e-15 0
0.859375 -1.90514e-15 0
0.902344 -3.18746e-15 0
0.902344 -2.51374e-15 0
0.902344 -2.54997e-15 0
0.902344 -3.18746e-15 0
0.9375 -2.97445e-15 0
0.9375 -3.50486e-15 0
0.902344 -3.18746e-15 0
0.902344 -2.51374e-15 0
0.9375 -3.50486e-15 0
0.9375 -2.82072e-15 0
0.9375 0 0
0.9375 8.6248e-16 0
0.964844 0 0
0.964844 5.06539e-16 0
0.9375 8.6248e-16 0
0.9375 3.29454e-16 0
0.964844 5.06539e-16 0
0.964844 2.6942e-16 0
0.964844 0 0
0.964844 5.06539e-16 0
0.984375 0 0
0.984375 4.35577e-16 0
0.964844 5.06539e-16 0
0.964844 2.6942e-16 0
0.984375 4.35577e-16 0
0.984375 3.81843e-16 0
0.9375 3.29454e-16 0
0.9375 -2.46605e-16 0
0.964844 2.6942e-16 0
0.964844 -5.56762e-16 0
0.9375 -2.46605e-16 0
0.9375 -1.49162e-15 0
0.964844 -5.56762e-16 0
0.964844 -1.25055e-15 0
0.964844 2.6942e-16 0
0.964844 -5.56762e-16 0
0.984375 3.81843e-16 0
0.984375 -4.75534e-16 0
0.964844 -5.56762e-16 0
0.964844 -1.25055e-15 0
0.984375 -4.75534e-16 0
0.984375 -9.27987e-16 0
0.984375 0 0
0.984375 4.35577e-16 0
0.996094 0 0
0.996094 -1.92212e-17 0
0.984375 4.35577e-16 0
0.984375 3.81843e-16 0
0.996094 -1.92212e-17 0
0.996094 3.91654e-16 0
0.996094 0 0
0.996094 -1.92212e-17 0
1 0 0
1 -2.80945e-16 0
0.996094 -1.92212e-17 0
0.996094 3.91654e-16 0
1 -2.80945e-16 0
1 1.69194e-16 0
0.984375 3.81843e-16 0
0.984375 -4.75534e-16 0
0.996094 3.91654e-16 0
0.996094 -5.63734e-16 0
0.984375 -4.75534e-16 0
0.984375 -9.27987e-16 0
0.996094 -5.63734e-16 0
0.996094 -6.16076e-16 0
0.996094 3.91654e-16 0
0.996094 -5.63734e-16 0
1 1.69194e-16 0
1 9.07137e-17 0
0.996094 -5.63734e-16 0
0.996094 -6.16076e-16 0
1 9.07137e-17 0
1 -4.58881e-16 0
0.9375 -1.49162e-15 0
0.9375 -2.12923e-15 0
0.964844 -1.25055e-15 0
0.964844 -2.29832e-15 0
0.9375 -2.12923e-15 0
0.9375 -2.97445e-15 0
0.964844 -2.29832e-15 0
0.964844 -3.06451e-15 0
0.964844 -1.25055e-15 0
0.964844 -2.29832e-15 0
0.984375 -9.27987e-16 0
0.984375 -1.92719e-15 0
0.964844 -2.29832e-15 0
0.964844 -3.06451e-15 0
0.984375 -1.92719e-15 0
0.984375 -2.278e-15 0
0.9375 -2.97445e-15 0
0.9375 -3.50486e-15 0
0.964844 -3.06451e-15 0
0.964844 -2.77091e-15 0
0.9375 -3.50486e-15 0
0.9375 -2.82072e-15 0
0.964844 -2.77091e-15 0
0.964844 -2.92533e-15 0
0.964844 -3.06451e-15 0
0.964844 -2.77091e-15 0
0.984375 -2.278e-15 0
0.984375 -2.4087e-15 0
0.964844 -2.77091e-15 0
0.964844 -2.92533e-15 0
0.984375 -2.4087e-15 0
0.984375 -2.17333e-15 0
0.984375 -9.27987e-16 0
0.984375 -1.92719e-15 0
0.996094 -6.16076e-16 0
0.996094 -1.17512e-15 0
0.984375 -1.92719e-15 0
0.984375 -2.278e-15 0
0.996094 -1.17512e-15 0
0.996094 -9.48363e-16 0
0.996094 -6.16076e-16 0
0.996094 -1.17512e-15 0
1 -4.58881e-16 0
1 -5.4382e-17 0
0.996094 -1.17512e-15 0
0.996094 -9.48363e-16 0
1 -5.4382e-17 0
1 5.16837e-17 0
0.984375 -2.278e-15 0
0.984375 -2.4087e-15 0
0.996094 -9.48363e-16 0
0.996094 -1.16645e-15 0
0.984375 -2.4087e-15 0
0.984375 -2.17333e-15 0
0.996094 -1.16645e-15 0
0.996094 -1.04953e-15 0
0.996094 -9.48363e-16 0
0.996094 -1.16645e-15 0
1 5.16837e-17 0
1 7.5261e-17 0
0.996094 -1.16645e-15 0
0.996094 -1.04953e-15 0
1 7.5261e-17 0
1 9.87917e-17 0
0.75 2.35895e-16 0
0.75 2.54852e-16 0
0.808594 -9.71134e-16 0
0.808594 -3.35288e-16 0
0.75 2.54852e-16 0
0.75 1.34364e-15 0
0.808594 -3.35288e-16 0
0.808594 3.68721e-16 0
0.808594 -9.71134e-16 0
0.808594 -3.35288e-16 0
0.859375 -1.90514e-15 0
0.859375 -1.18414e-15 0
0.808594 -3.35288e-16 0
0.808594 3.68721e-16 0
0.859375 -1.18414e-15 0
0.859375 -3.21961e-16 0
0.75 1.34364e-15 0
0.75 1.48827e-15 0
0.808594 3.68721e-16 0
0.808594 1.35797e-15 0
0.75 1.48827e-15 0
0.75 2.45762e-15 0
0.808594 1.35797e-15 0
0.808594 1.83165e-15 0
0.808594 3.68721e-16 0
0.808594 1.35797e-15 0
0.859375 -3.21961e-16 0
0.859375 8.12412e-16 0
0.808594 1.35797e-15 0
0.808594 1.83165e-15 0
0.859375 8.12412e-16 0
0.859375 1.37855e-15 0
0.859375 -1.90514e-15 0
0.859375 -1.18414e-15 0
0.902344 -2.51374e-15 0
0.902344 -1.69256e-15 0
0.859375 -1.18414e-15 0
0.859375 -3.21961e-16 0
0.902344 -1.69256e-15 0
0.902344 -9.57039e-16 0
0.902344 -2.51374e-15 0
0.902344 -1.69256e-15 0
0.9375 -2.82072e-15 0
0.9375 -2.13642e-15 0
0.902344 -1.69256e-15 0
0.902344 -9.57039e-16 0
0.9375 -2.13642e-15 0
0.9375 -1.31555e-15 0
0.859375 -3.21961e-16 0
0.859375 8.12412e-16 0
0.902344 -9.57039e-16 0
0.902344 1.35835e-16 0
0.859375 8.12412e-16 0
0.859375 1.37855e-15 0
0.902344 1.35835e-16 0
0.902344 1.0997e-15 0
0.902344 -9.57039e-16 0
0.902344 1.35835e-16 0
0.9375 -1.31555e-15 0
0.9375 -1.45666e-16 0
0.902344 1.35835e-16 0
0.902344 1.0997e-15 0
0.9375 -1.45666e-16 0
0.9375 8.05555e-16 0
0.75 2.45762e-15 0
0.75 2.51438e-15 0
0.808594 1.83165e-15 0
0.808594 2.50788e-15 0
0.75 2.51438e-15 0
0.75 3.04821e-15 0
0.808594 2.50788e-15 0
0.808594 2.66045e-15 0
0.808594 1.83165e-15 0
0.808594 2.50788e-15 0
0.859375 1.37855e-15 0
0.859375 2.28775e-15 0
0.808594 2.50788e-15 0
0.808594 2.66045e-15 0
0.859375 2.28775e-15 0
0.859375 2.47545e-15 0
0.75 3.04821e-15 0
0.75 2.59302e-15 0
0.808594 2.66045e-15 0
0.808594 2.95397e-15 0
0.75 2.59302e-15 0
0.75 2.453e-15 0
0.808594 2.95397e-15 0
0.808594 2.24932e-15 0
0.808594 2.66045e-15 0
0.808594 2.95397e-15 0
0.859375 2.47545e-15 0
0.859375 2.74408e-15 0
0.808594 2.95397e-15 0
0.808594 2.24932e-15 0
0.859375 2.74408e-15 0
0.859375 2.24966e-15 0
0.859375 1.37855e-15 0
0.859375 2.28775e-15 0
0.902344 1.0997e-15 0
0.902344 1.74191e-15 0
0.859375 2.28775e-15 0
0.859375 2.47545e-15 0
0.902344 1.74191e-15 0
0.902344 2.00185e-15 0
0.902344 1.0997e-15 0
0.902344 1.74191e-15 0
0.9375 8.05555e-16 0
0.9375 1.33936e-15 0
0.902344 1.74191e-15 0
0.902344 2.00185e-15 0
0.9375 1.33936e-15 0
0.9375 1.94275e-15 0
0.859375 2.47545e-15 0
0.859375 2.74408e-15 0
0.902344 2.00185e-15 0
0.902344 2.39445e-15 0
0.859375 2.74408e-15 0
0.859375 2.24966e-15 0
0.902344 2.39445e-15 0
0.902344 2.18966e-15 0
0.902344 2.00185e-15 0
0.902344 2.39445e-15 0
0.9375 1.94275e-15 0
0.9375 1.93469e-15 0
0.902344 2.39445e-15 0
0.902344 2.18966e-15 0
0.9375 1.93469e-15 0
0.9375 1.95224e-15 0
0.9375 -2.82072e-15 0
0.9375 -2.13642e-15 0
0.964844 -2.92533e-15 0
0.964844 -1.7654e-15 0
0.9375 -2.13642e-15 0
0.9375 -1.31555e-15 0
0.964844 -1.7654e-15 0
0.964844 -1.63047e-15 0
0.964844 -2.92533e-15 0
0.964844 -1.7654e-15 0
0.984375 -2.17333e-15 0
0.984375 -1.63895e-15 0
0.964844 -1.7654e-15 0
0.964844 -1.63047e-15 0
0.984375 -1.63895e-15 0
0.984375 -7.96832e-16 0
0.9375 -1.31555e-15 0
0.9375 -1.45666e-16 0
0.964844 -1.63047e-15 0
0.964844 -9.61026e-17 0
0.9375 -1.45666e-16 0
0.9375 8.05555e-16 0
0.964844 -9.61026e-17 0
0.964844 1.83023e-16 0
0.964844 -1.63047e-15 0
0.964844 -9.61026e-17 0
0.984375 -7.96832e-16 0
0.984375 -5.42107e-16 0
0.964844 -9.61026e-17 0