# vtk DataFile Version 3.0
#This file was generated by the deal.II library on 2026/3/20 at 15:27:33
ASCII
DATASET UNSTRUCTURED_GRID

POINTS 10672 double
0 0.125 0
0.03125 0.125 0
0 0.15625 0
0.03125 0.15625 0
0.03125 0.125 0
0.0625 0.125 0
0.03125 0.15625 0
0.0625 0.15625 0
0 0.15625 0
0.03125 0.15625 0
0 0.1875 0
0.03125 0.1875 0
0.03125 0.15625 0
0.0625 0.15625 0
0.03125 0.1875 0
0.0625 0.1875 0
0.0625 0.125 0
0.09375 0.125 0
0.0625 0.15625 0
0.09375 0.15625 0
0.09375 0.125 0
0.125 0.125 0
0.09375 0.15625 0
0.125 0.15625 0
0.0625 0.15625 0
0.09375 0.15625 0
0.0625 0.1875 0
0.09375 0.1875 0
0.09375 0.15625 0
0.125 0.15625 0
0.09375 0.1875 0
0.125 0.1875 0
0 0.1875 0
0.03125 0.1875 0
0 0.21875 0
0.03125 0.21875 0
0.03125 0.1875 0
0.0625 0.1875 0
0.03125 0.21875 0
0.0625 0.21875 0
0 0.21875 0
0.03125 0.21875 0
0 0.25 0
0.03125 0.25 0
0.03125 0.21875 0
0.0625 0.21875 0
0.03125 0.25 0
0.0625 0.25 0
0.0625 0.1875 0
0.09375 0.1875 0
0.0625 0.21875 0
0.09375 0.21875 0
0.09375 0.1875 0
0.125 0.1875 0
0.09375 0.21875 0
0.125 0.21875 0
0.0625 0.21875 0
0.09375 0.21875 0
0.0625 0.25 0
0.09375 0.25 0
0.09375 0.21875 0
0.125 0.21875 0
0.09375 0.25 0
0.125 0.25 0
0.125 0.125 0
0.15625 0.125 0
0.125 0.15625 0
0.15625 0.15625 0
0.15625 0.125 0
0.1875 0.125 0
0.15625 0.15625 0
0.1875 0.15625 0
0.125 0.15625 0
0.15625 0.15625 0
0.125 0.1875 0
0.15625 0.1875 0
0.15625 0.15625 0
0.1875 0.15625 0
0.15625 0.1875 0
0.1875 0.1875 0
0.1875 0.125 0
0.21875 0.125 0
0.1875 0.15625 0
0.21875 0.15625 0
0.21875 0.125 0
0.25 0.125 0
0.21875 0.15625 0
0.25 0.15625 0
0.1875 0.15625 0
0.21875 0.15625 0
0.1875 0.1875 0
0.21875 0.1875 0
0.21875 0.15625 0
0.25 0.15625 0
0.21875 0.1875 0
0.25 0.1875 0
0.25 0.0625 0
0.28125 0.0625 0
0.25 0.09375 0
0.28125 0.09375 0
0.28125 0.0625 0
0.3125 0.0625 0
0.28125 0.09375 0
0.3125 0.09375 0
0.25 0.09375 0
0.28125 0.09375 0
0.25 0.125 0
0.28125 0.125 0
0.28125 0.09375 0
0.3125 0.09375 0
0.28125 0.125 0
0.3125 0.125 0
0.3125 0.0625 0
0.34375 0.0625 0
0.3125 0.09375 0
0.34375 0.09375 0
0.34375 0.0625 0
0.375 0.0625 0
0.34375 0.09375 0
0.375 0.09375 0
0.3125 0.09375 0
0.34375 0.09375 0
0.3125 0.125 0
0.34375 0.125 0
0.34375 0.09375 0
0.375 0.09375 0
0.34375 0.125 0
0.375 0.125 0
0.375 0.0625 0
0.40625 0.0625 0
0.375 0.09375 0
0.40625 0.09375 0
0.40625 0.0625 0
0.4375 0.0625 0
0.40625 0.09375 0
0.4375 0.09375 0
0.375 0.09375 0
0.40625 0.09375 0
0.375 0.125 0
0.40625 0.125 0
0.40625 0.09375 0
0.4375 0.09375 0
0.40625 0.125 0
0.4375 0.125 0
0.25 0.125 0
0.28125 0.125 0
0.25 0.15625 0
0.28125 0.15625 0
0.28125 0.125 0
0.3125 0.125 0
0.28125 0.15625 0
0.3125 0.15625 0
0.25 0.15625 0
0.28125 0.15625 0
0.25 0.1875 0
0.28125 0.1875 0
0.28125 0.15625 0
0.3125 0.15625 0
0.28125 0.1875 0
0.3125 0.1875 0
0.3125 0.125 0
0.34375 0.125 0
0.3125 0.15625 0
0.34375 0.15625 0
0.34375 0.125 0
0.375 0.125 0
0.34375 0.15625 0
0.375 0.15625 0
0.3125 0.15625 0
0.34375 0.15625 0
0.3125 0.1875 0
0.34375 0.1875 0
0.34375 0.15625 0
0.375 0.15625 0
0.34375 0.1875 0
0.375 0.1875 0
0.375 0.125 0
0.40625 0.125 0
0.375 0.15625 0
0.40625 0.15625 0
0.40625 0.125 0
0.4375 0.125 0
0.40625 0.15625 0
0.4375 0.15625 0
0.375 0.15625 0
0.40625 0.15625 0
0.375 0.1875 0
0.40625 0.1875 0
0.40625 0.15625 0
0.4375 0.15625 0
0.40625 0.1875 0
0.4375 0.1875 0
0.4375 0.125 0
0.46875 0.125 0
0.4375 0.15625 0
0.46875 0.15625 0
0.46875 0.125 0
0.5 0.125 0
0.46875 0.15625 0
0.5 0.15625 0
0.4375 0.15625 0
0.46875 0.15625 0
0.4375 0.1875 0
0.46875 0.1875 0
0.46875 0.15625 0
0.5 0.15625 0
0.46875 0.1875 0
0.5 0.1875 0
0.375 0.1875 0
0.40625 0.1875 0
0.375 0.21875 0
0.40625 0.21875 0
0.40625 0.1875 0
0.4375 0.1875 0
0.40625 0.21875 0
0.4375 0.21875 0
0.375 0.21875 0
0.40625 0.21875 0
0.375 0.25 0
0.40625 0.25 0
0.40625 0.21875 0
0.4375 0.21875 0
0.40625 0.25 0
0.4375 0.25 0
0.0625 0.3125 0
0.09375 0.3125 0
0.0625 0.34375 0
0.09375 0.34375 0
0.09375 0.3125 0
0.125 0.3125 0
0.09375 0.34375 0
0.125 0.34375 0
0.0625 0.34375 0
0.09375 0.34375 0
0.0625 0.375 0
0.09375 0.375 0
0.09375 0.34375 0
0.125 0.34375 0
0.09375 0.375 0
0.125 0.375 0
0.125 0.3125 0
0.15625 0.3125 0
0.125 0.34375 0
0.15625 0.34375 0
0.15625 0.3125 0
0.1875 0.3125 0
0.15625 0.34375 0
0.1875 0.34375 0
0.125 0.34375 0
0.15625 0.34375 0
0.125 0.375 0
0.15625 0.375 0
0.15625 0.34375 0
0.1875 0.34375 0
0.15625 0.375 0
0.1875 0.375 0
0 0.375 0
0.03125 0.375 0
0 0.40625 0
0.03125 0.40625 0
0.03125 0.375 0
0.0625 0.375 0
0.03125 0.40625 0
0.0625 0.40625 0
0 0.40625 0
0.03125 0.40625 0
0 0.4375 0
0.03125 0.4375 0
0.03125 0.40625 0
0.0625 0.40625 0
0.03125 0.4375 0
0.0625 0.4375 0
0.0625 0.375 0
0.09375 0.375 0
0.0625 0.40625 0
0.09375 0.40625 0
0.09375 0.375 0
0.125 0.375 0
0.09375 0.40625 0
0.125 0.40625 0
0.0625 0.40625 0
0.09375 0.40625 0
0.0625 0.4375 0
0.09375 0.4375 0
0.09375 0.40625 0
0.125 0.40625 0
0.09375 0.4375 0
0.125 0.4375 0
0.125 0.375 0
0.15625 0.375 0
0.125 0.40625 0
0.15625 0.40625 0
0.15625 0.375 0
0.1875 0.375 0
0.15625 0.40625 0
0.1875 0.40625 0
0.125 0.40625 0
0.15625 0.40625 0
0.125 0.4375 0
0.15625 0.4375 0
0.15625 0.40625 0
0.1875 0.40625 0
0.15625 0.4375 0
0.1875 0.4375 0
0.1875 0.375 0
0.21875 0.375 0
0.1875 0.40625 0
0.21875 0.40625 0
0.21875 0.375 0
0.25 0.375 0
0.21875 0.40625 0
0.25 0.40625 0
0.1875 0.40625 0
0.21875 0.40625 0
0.1875 0.4375 0
0.21875 0.4375 0
0.21875 0.40625 0
0.25 0.40625 0
0.21875 0.4375 0
0.25 0.4375 0
0.25 0.3125 0
0.28125 0.3125 0
0.25 0.34375 0
0.28125 0.34375 0
0.28125 0.3125 0
0.3125 0.3125 0
0.28125 0.34375 0
0.3125 0.34375 0
0.25 0.34375 0
0.28125 0.34375 0
0.25 0.375 0
0.28125 0.375 0
0.28125 0.34375 0
0.3125 0.34375 0
0.28125 0.375 0
0.3125 0.375 0
0.375 0.25 0
0.40625 0.25 0
0.375 0.28125 0
0.40625 0.28125 0
0.40625 0.25 0
0.4375 0.25 0
0.40625 0.28125 0
0.4375 0.28125 0
0.375 0.28125 0
0.40625 0.28125 0
0.375 0.3125 0
0.40625 0.3125 0
0.40625 0.28125 0
0.4375 0.28125 0
0.40625 0.3125 0
0.4375 0.3125 0
0.375 0.3125 0
0.40625 0.3125 0
0.375 0.34375 0
0.40625 0.34375 0
0.40625 0.3125 0
0.4375 0.3125 0
0.40625 0.34375 0
0.4375 0.34375 0
0.375 0.34375 0
0.40625 0.34375 0
0.375 0.375 0
0.40625 0.375 0
0.40625 0.34375 0
0.4375 0.34375 0
0.40625 0.375 0
0.4375 0.375 0
0.4375 0.3125 0
0.46875 0.3125 0
0.4375 0.34375 0
0.46875 0.34375 0
0.46875 0.3125 0
0.5 0.3125 0
0.46875 0.34375 0
0.5 0.34375 0
0.4375 0.34375 0
0.46875 0.34375 0
0.4375 0.375 0
0.46875 0.375 0
0.46875 0.34375 0
0.5 0.34375 0
0.46875 0.375 0
0.5 0.375 0
0.5 0.0625 0
0.53125 0.0625 0
0.5 0.09375 0
0.53125 0.09375 0
0.53125 0.0625 0
0.5625 0.0625 0
0.53125 0.09375 0
0.5625 0.09375 0
0.5 0.09375 0
0.53125 0.09375 0
0.5 0.125 0
0.53125 0.125 0
0.53125 0.09375 0
0.5625 0.09375 0
0.53125 0.125 0
0.5625 0.125 0
0.5625 0.0625 0
0.59375 0.0625 0
0.5625 0.09375 0
0.59375 0.09375 0
0.59375 0.0625 0
0.625 0.0625 0
0.59375 0.09375 0
0.625 0.09375 0
0.5625 0.09375 0
0.59375 0.09375 0
0.5625 0.125 0
0.59375 0.125 0
0.59375 0.09375 0
0.625 0.09375 0
0.59375 0.125 0
0.625 0.125 0
0.625 0.0625 0
0.65625 0.0625 0
0.625 0.09375 0
0.65625 0.09375 0
0.65625 0.0625 0
0.6875 0.0625 0
0.65625 0.09375 0
0.6875 0.09375 0
0.625 0.09375 0
0.65625 0.09375 0
0.625 0.125 0
0.65625 0.125 0
0.65625 0.09375 0
0.6875 0.09375 0
0.65625 0.125 0
0.6875 0.125 0
0.6875 0.0625 0
0.71875 0.0625 0
0.6875 0.09375 0
0.71875 0.09375 0
0.71875 0.0625 0
0.75 0.0625 0
0.71875 0.09375 0
0.75 0.09375 0
0.6875 0.09375 0
0.71875 0.09375 0
0.6875 0.125 0
0.71875 0.125 0
0.71875 0.09375 0
0.75 0.09375 0
0.71875 0.125 0
0.75 0.125 0
0.5 0.125 0
0.53125 0.125 0
0.5 0.15625 0
0.53125 0.15625 0
0.53125 0.125 0
0.5625 0.125 0
0.53125 0.15625 0
0.5625 0.15625 0
0.5 0.15625 0
0.53125 0.15625 0
0.5 0.1875 0
0.53125 0.1875 0
0.53125 0.15625 0
0.5625 0.15625 0
0.53125 0.1875 0
0.5625 0.1875 0
0.5625 0.125 0
0.59375 0.125 0
0.5625 0.15625 0
0.59375 0.15625 0
0.59375 0.125 0
0.625 0.125 0
0.59375 0.15625 0
0.625 0.15625 0
0.5625 0.15625 0
0.59375 0.15625 0
0.5625 0.1875 0
0.59375 0.1875 0
0.59375 0.15625 0
0.625 0.15625 0
0.59375 0.1875 0
0.625 0.1875 0
0.5 0.1875 0
0.53125 0.1875 0
0.5 0.21875 0
0.53125 0.21875 0
0.53125 0.1875 0
0.5625 0.1875 0
0.53125 0.21875 0
0.5625 0.21875 0
0.5 0.21875 0
0.53125 0.21875 0
0.5 0.25 0
0.53125 0.25 0
0.53125 0.21875 0
0.5625 0.21875 0
0.53125 0.25 0
0.5625 0.25 0
0.625 0.125 0
0.65625 0.125 0
0.625 0.15625 0
0.65625 0.15625 0
0.65625 0.125 0
0.6875 0.125 0
0.65625 0.15625 0
0.6875 0.15625 0
0.625 0.15625 0
0.65625 0.15625 0
0.625 0.1875 0
0.65625 0.1875 0
0.65625 0.15625 0
0.6875 0.15625 0
0.65625 0.1875 0
0.6875 0.1875 0
0.6875 0.125 0
0.71875 0.125 0
0.6875 0.15625 0
0.71875 0.15625 0
0.71875 0.125 0
0.75 0.125 0
0.71875 0.15625 0
0.75 0.15625 0
0.6875 0.15625 0
0.71875 0.15625 0
0.6875 0.1875 0
0.71875 0.1875 0
0.71875 0.15625 0
0.75 0.15625 0
0.71875 0.1875 0
0.75 0.1875 0
0.6875 0.1875 0
0.71875 0.1875 0
0.6875 0.21875 0
0.71875 0.21875 0
0.71875 0.1875 0
0.75 0.1875 0
0.71875 0.21875 0
0.75 0.21875 0
0.6875 0.21875 0
0.71875 0.21875 0
0.6875 0.25 0
0.71875 0.25 0
0.71875 0.21875 0
0.75 0.21875 0
0.71875 0.25 0
0.75 0.25 0
0.75 0 0
0.78125 0 0
0.75 0.03125 0
0.78125 0.03125 0
0.78125 0 0
0.8125 0 0
0.78125 0.03125 0
0.8125 0.03125 0
0.75 0.03125 0
0.78125 0.03125 0
0.75 0.0625 0
0.78125 0.0625 0
0.78125 0.03125 0
0.8125 0.03125 0
0.78125 0.0625 0
0.8125 0.0625 0
0.75 0.0625 0
0.78125 0.0625 0
0.75 0.09375 0
0.78125 0.09375 0
0.78125 0.0625 0
0.8125 0.0625 0
0.78125 0.09375 0
0.8125 0.09375 0
0.75 0.09375 0
0.78125 0.09375 0
0.75 0.125 0
0.78125 0.125 0
0.78125 0.09375 0
0.8125 0.09375 0
0.78125 0.125 0
0.8125 0.125 0
0.8125 0.0625 0
0.84375 0.0625 0
0.8125 0.09375 0
0.84375 0.09375 0
0.84375 0.0625 0
0.875 0.0625 0
0.84375 0.09375 0
0.875 0.09375 0
0.8125 0.09375 0
0.84375 0.09375 0
0.8125 0.125 0
0.84375 0.125 0
0.84375 0.09375 0
0.875 0.09375 0
0.84375 0.125 0
0.875 0.125 0
0.875 0.0625 0
0.90625 0.0625 0
0.875 0.09375 0
0.90625 0.09375 0
0.90625 0.0625 0
0.9375 0.0625 0
0.90625 0.09375 0
0.9375 0.09375 0
0.875 0.09375 0
0.90625 0.09375 0
0.875 0.125 0
0.90625 0.125 0
0.90625 0.09375 0
0.9375 0.09375 0
[...]
POINT_DATA 10672
VECTORS velocity double
0.4375 0 0
0.4375 2.95659e-18 0
0.527344 0 0
0.527344 9.23785e-17 0
0.4375 2.95659e-18 0
0.4375 4.34762e-17 0
0.527344 9.23785e-17 0
0.527344 -1.98075e-16 0
0.527344 0 0
0.527344 9.23785e-17 0
0.609375 0 0
0.609375 8.60105e-17 0
0.527344 9.23785e-17 0
0.527344 -1.98075e-16 0
0.609375 8.60105e-17 0
0.609375 5.66272e-17 0
0.4375 4.34762e-17 0
0.4375 -3.00414e-16 0
0.527344 -1.98075e-16 0
0.527344 2.88969e-17 0
0.4375 -3.00414e-16 0
0.4375 2.38765e-16 0
0.527344 2.88969e-17 0
0.527344 -1.46614e-16 0
0.527344 -1.98075e-16 0
0.527344 2.88969e-17 0
0.609375 5.66272e-17 0
0.609375 -2.2943e-17 0
0.527344 2.88969e-17 0
0.527344 -1.46614e-16 0
0.609375 -2.2943e-17 0
0.609375 -9.75077e-18 0
0.609375 0 0
0.609375 8.60105e-17 0
0.683594 0 0
0.683594 9.11764e-17 0
0.609375 8.60105e-17 0
0.609375 5.66272e-17 0
0.683594 9.11764e-17 0
0.683594 -4.24364e-17 0
0.683594 0 0
0.683594 9.11764e-17 0
0.75 0 0
0.75 -2.07295e-16 0
0.683594 9.11764e-17 0
0.683594 -4.24364e-17 0
0.75 -2.07295e-16 0
0.75 3.23698e-16 0
0.609375 5.66272e-17 0
0.609375 -2.2943e-17 0
0.683594 -4.24364e-17 0
0.683594 4.71357e-17 0
0.609375 -2.2943e-17 0
0.609375 -9.75077e-18 0
0.683594 4.71357e-17 0
0.683594 -1.7768e-16 0
0.683594 -4.24364e-17 0
0.683594 4.71357e-17 0
0.75 3.23698e-16 0
0.75 7.88046e-17 0
0.683594 4.71357e-17 0
0.683594 -1.7768e-16 0
0.75 7.88046e-17 0
0.75 -1.71388e-17 0
0.4375 2.38765e-16 0
0.4375 -2.60064e-16 0
0.527344 -1.46614e-16 0
0.527344 4.49789e-17 0
0.4375 -2.60064e-16 0
0.4375 8.26412e-17 0
0.527344 4.49789e-17 0
0.527344 -1.46843e-16 0
0.527344 -1.46614e-16 0
0.527344 4.49789e-17 0
0.609375 -9.75077e-18 0
0.609375 -1.51025e-16 0
0.527344 4.49789e-17 0
0.527344 -1.46843e-16 0
0.609375 -1.51025e-16 0
0.609375 1.80716e-17 0
0.4375 8.26412e-17 0
0.4375 9.99831e-17 0
0.527344 -1.46843e-16 0
0.527344 1.07188e-16 0
0.4375 9.99831e-17 0
0.4375 -7.02862e-17 0
0.527344 1.07188e-16 0
0.527344 -7.41584e-17 0
0.527344 -1.46843e-16 0
0.527344 1.07188e-16 0
0.609375 1.80716e-17 0
0.609375 -2.58159e-16 0
0.527344 1.07188e-16 0
0.527344 -7.41584e-17 0
0.609375 -2.58159e-16 0
0.609375 2.38593e-16 0
0.234375 -1.87263e-16 0
0.234375 1.19843e-16 0
0.339844 -9.05931e-17 0
0.339844 6.66653e-17 0
0.234375 1.19843e-16 0
0.234375 -6.90433e-17 0
0.339844 6.66653e-17 0
0.339844 3.16965e-17 0
0.339844 -9.05931e-17 0
0.339844 6.66653e-17 0
0.4375 -7.02862e-17 0
0.4375 2.55478e-17 0
0.339844 6.66653e-17 0
0.339844 3.16965e-17 0
0.4375 2.55478e-17 0
0.4375 -4.27973e-17 0
0.234375 -6.90433e-17 0
0.234375 -4.52219e-17 0
0.339844 3.16965e-17 0
0.339844 -5.72294e-17 0
0.234375 -4.52219e-17 0
0.234375 -5.38759e-17 0
0.339844 -5.72294e-17 0
0.339844 9.44747e-17 0
0.339844 3.16965e-17 0
0.339844 -5.72294e-17 0
0.4375 -4.27973e-17 0
0.4375 -4.52018e-17 0
0.339844 -5.72294e-17 0
0.339844 9.44747e-17 0
0.4375 -4.52018e-17 0
0.4375 7.4473e-17 0
0.234375 -5.38759e-17 0
0.234375 2.52328e-16 0
0.339844 9.44747e-17 0
0.339844 1.26148e-16 0
0.234375 2.52328e-16 0
0.234375 -1.35817e-17 0
0.339844 1.26148e-16 0
0.339844 1.5781e-16 0
0.339844 9.44747e-17 0
0.339844 1.26148e-16 0
0.4375 7.4473e-17 0
0.4375 5.31865e-17 0
0.339844 1.26148e-16 0
0.339844 1.5781e-16 0
0.4375 5.31865e-17 0
0.4375 1.57361e-16 0
0.4375 -7.02862e-17 0
0.4375 2.55478e-17 0
0.527344 -7.41584e-17 0
0.527344 2.47972e-17 0
0.4375 2.55478e-17 0
0.4375 -4.27973e-17 0
0.527344 2.47972e-17 0
0.527344 -1.21501e-16 0
0.527344 -7.41584e-17 0
0.527344 2.47972e-17 0
0.609375 2.38593e-16 0
0.609375 -2.5161e-16 0
0.527344 2.47972e-17 0
0.527344 -1.21501e-16 0
0.609375 -2.5161e-16 0
0.609375 1.79041e-16 0
0.4375 -4.27973e-17 0
0.4375 -4.52018e-17 0
0.527344 -1.21501e-16 0
0.527344 1.68058e-16 0
0.4375 -4.52018e-17 0
0.4375 7.4473e-17 0
0.527344 1.68058e-16 0
0.527344 4.96195e-18 0
0.527344 -1.21501e-16 0
0.527344 1.68058e-16 0
0.609375 1.79041e-16 0
0.609375 -1.30341e-17 0
0.527344 1.68058e-16 0
0.527344 4.96195e-18 0
0.609375 -1.30341e-17 0
0.609375 1.69234e-17 0
0.4375 7.4473e-17 0
0.4375 5.31865e-17 0
0.527344 4.96195e-18 0
0.527344 2.02139e-16 0
0.4375 5.31865e-17 0
0.4375 1.57361e-16 0
0.527344 2.02139e-16 0
0.527344 -1.05043e-16 0
0.527344 4.96195e-18 0
0.527344 2.02139e-16 0
0.609375 1.69234e-17 0
0.609375 2.96963e-17 0
0.527344 2.02139e-16 0
0.527344 -1.05043e-16 0
0.609375 2.96963e-17 0
0.609375 9.77146e-17 0
0.4375 1.57361e-16 0
0.4375 -1.09341e-16 0
0.527344 -1.05043e-16 0
0.527344 1.14517e-16 0
0.4375 -1.09341e-16 0
0.4375 1.2664e-16 0
0.527344 1.14517e-16 0
0.527344 -4.09323e-18 0
0.527344 -1.05043e-16 0
0.527344 1.14517e-16 0
0.609375 9.77146e-17 0
0.609375 -3.2212e-18 0
0.527344 1.14517e-16 0
0.527344 -4.09323e-18 0
0.609375 -3.2212e-18 0
0.609375 -8.27369e-17 0
0.609375 1.69234e-17 0
0.609375 2.96963e-17 0
0.683594 9.78649e-17 0
0.683594 -2.72609e-17 0
0.609375 2.96963e-17 0
0.609375 9.77146e-17 0
0.683594 -2.72609e-17 0
0.683594 5.45213e-17 0
0.683594 9.78649e-17 0
0.683594 -2.72609e-17 0
0.75 -1.87727e-17 0
0.75 -4.80748e-17 0
0.683594 -2.72609e-17 0
0.683594 5.45213e-17 0
0.75 -4.80748e-17 0
0.75 5.28044e-17 0
0.859375 2.28591e-16 0
0.859375 -3.9302e-17 0
0.902344 2.70701e-16 0
0.902344 -3.84726e-17 0
0.859375 -3.9302e-17 0
0.859375 1.95486e-17 0
0.902344 -3.84726e-17 0
0.902344 1.84192e-17 0
0.902344 2.70701e-16 0
0.902344 -3.84726e-17 0
0.9375 -1.87194e-16 0
0.9375 1.79888e-16 0
0.902344 -3.84726e-17 0
0.902344 1.84192e-17 0
0.9375 1.79888e-16 0
0.9375 2.30449e-16 0
0.859375 1.95486e-17 0
0.859375 1.77575e-16 0
0.902344 1.84192e-17 0
0.902344 2.00926e-16 0
0.859375 1.77575e-16 0
0.859375 -1.38582e-16 0
0.902344 2.00926e-16 0
0.902344 -5.4095e-17 0
0.902344 1.84192e-17 0
0.902344 2.00926e-16 0
0.9375 2.30449e-16 0
0.9375 6.29024e-17 0
0.902344 2.00926e-16 0
0.902344 -5.4095e-17 0
0.9375 6.29024e-17 0
0.9375 3.28778e-17 0
0.9375 0 0
0.9375 5.10847e-17 0
0.964844 0 0
0.964844 -7.46163e-17 0
0.9375 5.10847e-17 0
0.9375 -1.87194e-16 0
0.964844 -7.46163e-17 0
0.964844 -2.11924e-17 0
0.964844 0 0
0.964844 -7.46163e-17 0
0.984375 0 0
0.984375 -2.70826e-17 0
0.964844 -7.46163e-17 0
0.964844 -2.11924e-17 0
0.984375 -2.70826e-17 0
0.984375 -1.87935e-16 0
0.9375 -1.87194e-16 0
0.9375 1.79888e-16 0
0.964844 -2.11924e-17 0
0.964844 -2.85575e-16 0
0.9375 1.79888e-16 0
0.9375 2.30449e-16 0
0.964844 -2.85575e-16 0
0.964844 1.95668e-16 0
0.964844 -2.11924e-17 0
0.964844 -2.85575e-16 0
0.984375 -1.87935e-16 0
0.984375 1.62511e-16 0
0.964844 -2.85575e-16 0
0.964844 1.95668e-16 0
0.984375 1.62511e-16 0
0.984375 2.85753e-17 0
0.9375 2.30449e-16 0
0.9375 6.29024e-17 0
0.964844 1.95668e-16 0
0.964844 -7.2124e-18 0
0.9375 6.29024e-17 0
0.9375 3.28778e-17 0
0.964844 -7.2124e-18 0
0.964844 1.79638e-16 0
0.964844 1.95668e-16 0
0.964844 -7.2124e-18 0
0.984375 2.85753e-17 0
0.984375 1.63097e-16 0
0.964844 -7.2124e-18 0
0.964844 1.79638e-16 0
0.984375 1.63097e-16 0
0.984375 2.02485e-16 0
0.9375 3.28778e-17 0
0.9375 3.06041e-16 0
0.964844 1.79638e-16 0
0.964844 1.47174e-16 0
0.9375 3.06041e-16 0
0.9375 8.97594e-17 0
0.964844 1.47174e-16 0
0.964844 5.03509e-16 0
0.964844 1.79638e-16 0
0.964844 1.47174e-16 0
0.984375 2.02485e-16 0
0.984375 2.19494e-16 0
0.964844 1.47174e-16 0
0.964844 5.03509e-16 0
0.984375 2.19494e-16 0
0.984375 1.96842e-16 0
0.859375 -1.2576e-16 0
0.859375 5.0471e-16 0
0.902344 2.5852e-16 0
0.902344 1.54444e-16 0
0.859375 5.0471e-16 0
0.859375 -3.75689e-16 0
0.902344 1.54444e-16 0
0.902344 2.24013e-16 0
0.902344 2.5852e-16 0
0.902344 1.54444e-16 0
0.9375 8.97594e-17 0
0.9375 -1.75684e-16 0
0.902344 1.54444e-16 0
0.902344 2.24013e-16 0
0.9375 -1.75684e-16 0
0.9375 4.73841e-16 0
0.75 -1.87727e-17 0
0.75 -4.80748e-17 0
0.808594 1.26053e-16 0
0.808594 1.72878e-17 0
0.75 -4.80748e-17 0
0.75 5.28044e-17 0
0.808594 1.72878e-17 0
0.808594 7.82011e-17 0
0.808594 1.26053e-16 0
0.808594 1.72878e-17 0
0.859375 -1.08572e-16 0
0.859375 6.72551e-17 0
0.808594 1.72878e-17 0
0.808594 7.82011e-17 0
0.859375 6.72551e-17 0
0.859375 1.51749e-16 0
0.859375 -1.08572e-16 0
0.859375 6.72551e-17 0
0.902344 -6.73067e-17 0
0.902344 2.1734e-17 0
0.859375 6.72551e-17 0
0.859375 1.51749e-16 0
0.902344 2.1734e-17 0
0.902344 -1.06866e-16 0
0.902344 -6.73067e-17 0
0.902344 2.1734e-17 0
0.9375 -2.17152e-17 0
0.9375 1.72434e-16 0
0.902344 2.1734e-17 0
0.902344 -1.06866e-16 0
0.9375 1.72434e-16 0
0.9375 -2.96982e-16 0
0.859375 1.51749e-16 0
0.859375 -2.28807e-16 0
0.902344 -1.06866e-16 0
0.902344 1.27144e-17 0
0.859375 -2.28807e-16 0
0.859375 6.77095e-17 0
0.902344 1.27144e-17 0
0.902344 -1.71385e-16 0
0.902344 -1.06866e-16 0
0.902344 1.27144e-17 0
0.9375 -2.96982e-16 0
0.9375 2.43503e-16 0
0.902344 1.27144e-17 0
0.902344 -1.71385e-16 0
0.9375 2.43503e-16 0
0.9375 -9.74452e-17 0
0.234375 8.26729e-17 0
0.234375 2.04458e-17 0
0.339844 1.48454e-16 0
0.339844 -4.9992e-17 0
0.234375 2.04458e-17 0
0.234375 1.38897e-16 0
0.339844 -4.9992e-17 0
0.339844 1.32709e-16 0
0.339844 1.48454e-16 0
0.339844 -4.9992e-17 0
0.4375 1.2664e-16 0
0.4375 -1.75318e-16 0
0.339844 -4.9992e-17 0
0.339844 1.32709e-16 0
0.4375 -1.75318e-16 0
0.4375 3.04488e-16 0
0.234375 1.38897e-16 0
0.234375 -2.34982e-17 0
0.339844 1.32709e-16 0
0.339844 -3.66618e-17 0
0.234375 -2.34982e-17 0
0.234375 9.86359e-17 0
0.339844 -3.66618e-17 0
0.339844 1.28267e-16 0
0.339844 1.32709e-16 0
0.339844 -3.66618e-17 0
0.4375 3.04488e-16 0
0.4375 -9.20325e-17 0
0.339844 -3.66618e-17 0
0.339844 1.28267e-16 0
0.4375 -9.20325e-17 0
0.4375 1.91753e-16 0
0.234375 9.86359e-17 0
0.234375 6.01281e-17 0
0.339844 1.28267e-16 0
0.339844 1.12657e-16 0
0.234375 6.01281e-17 0
0.234375 7.52307e-17 0
0.339844 1.12657e-16 0
0.339844 7.65285e-18 0
0.339844 1.28267e-16 0
0.339844 1.12657e-16 0
0.4375 1.91753e-16 0
0.4375 -5.29436e-17 0
0.339844 1.12657e-16 0
0.339844 7.65285e-18 0
0.4375 -5.29436e-17 0
0.4375 1.53424e-16 0
0.234375 7.52307e-17 0
0.234375 -5.01797e-17 0
0.339844 7.65285e-18 0
0.339844 -6.1121e-17 0
0.234375 -5.01797e-17 0
0.234375 6.39689e-18 0
0.339844 -6.1121e-17 0
0.339844 1.14254e-17 0
0.339844 7.65285e-18 0
0.339844 -6.1121e-17 0
0.4375 1.53424e-16 0
0.4375 -1.20427e-16 0
0.339844 -6.1121e-17 0
0.339844 1.14254e-17 0
0.4375 -1.20427e-16 0
0.4375 9.09158e-17 0
0.4375 1.2664e-16 0
0.4375 -1.75318e-16 0
0.527344 -4.09323e-18 0
0.527344 1.58183e-16 0
0.4375 -1.75318e-16 0
0.4375 3.04488e-16 0
0.527344 1.58183e-16 0
0.527344 1.55198e-17 0
0.527344 -4.09323e-18 0
0.527344 1.58183e-16 0
0.609375 -8.27369e-17 0
0.609375 1.31137e-16 0
0.527344 1.58183e-16 0
0.527344 1.55198e-17 0
0.609375 1.31137e-16 0
0.609375 2.30643e-17 0
0.4375 3.04488e-16 0
0.4375 -9.20325e-17 0
0.527344 1.55198e-17 0
0.527344 1.63587e-16 0
0.4375 -9.20325e-17 0
0.4375 1.91753e-16 0
0.527344 1.63587e-16 0
0.527344 -3.20519e-17 0
0.527344 1.55198e-17 0
0.527344 1.63587e-16 0
0.609375 2.30643e-17 0
0.609375 1.97974e-16 0
0.527344 1.63587e-16 0
0.527344 -3.20519e-17 0
0.609375 1.97974e-16 0
0.609375 1.16046e-16 0
0.609375 -8.27369e-17 0
0.609375 1.31137e-16 0
0.683594 1.19249e-16 0
0.683594 -3.08061e-17 0
0.609375 1.31137e-16 0
0.609375 2.30643e-17 0
0.683594 -3.08061e-17 0
0.683594 1.96285e-16 0
0.683594 1.19249e-16 0
0.683594 -3.08061e-17 0
0.75 2.44359e-16 0
0.75 -5.55255e-17 0
0.683594 -3.08061e-17 0
0.683594 1.96285e-16 0
0.75 -5.55255e-17 0
0.75 1.74683e-16 0
0.4375 1.91753e-16 0
0.4375 -5.29436e-17 0
0.527344 -3.20519e-17 0
0.527344 1.6172e-16 0
0.4375 -5.29436e-17 0
0.4375 1.53424e-16 0
0.527344 1.6172e-16 0
0.527344 -4.39383e-17 0
0.527344 -3.20519e-17 0
0.527344 1.6172e-16 0
0.609375 1.16046e-16 0
0.609375 -4.91583e-17 0
0.527344 1.6172e-16 0
0.527344 -4.39383e-17 0
0.609375 -4.91583e-17 0
0.609375 1.83285e-16 0
0.4375 1.53424e-16 0
0.4375 -1.20427e-16 0
0.527344 -4.39383e-17 0
0.527344 1.67112e-16 0
0.4375 -1.20427e-16 0
0.4375 9.09158e-17 0
0.527344 1.67112e-16 0
0.527344 -1.41908e-16 0
0.527344 -4.39383e-17 0
0.527344 1.67112e-16 0
0.609375 1.83285e-16 0
0.609375 1.84397e-17 0
0.527344 1.67112e-16 0
0.527344 -1.41908e-16 0
0.609375 1.84397e-17 0
0.609375 -1.24694e-16 0
0.609375 1.83285e-16 0
0.609375 1.84397e-17 0
0.683594 8.58972e-17 0
0.683594 6.27898e-17 0
0.609375 1.84397e-17 0
0.609375 -1.24694e-16 0
0.683594 6.27898e-17 0
0.683594 -4.3693e-18 0
0.683594 8.58972e-17 0
0.683594 6.27898e-17 0
0.75 4.47096e-17 0
0.75 2.90138e-17 0
0.683594 6.27898e-17 0
0.683594 -4.3693e-18 0
0.75 2.90138e-17 0
0.75 -2.70414e-17 0
0 0 0
0 0 0
0.121094 -3.34655e-17 0
0.121094 2.68772e-17 0
0 0 0
0 0 0
0.121094 2.68772e-17 0
0.121094 -6.95576e-17 0
0.121094 -3.34655e-17 0
0.121094 2.68772e-17 0
0.234375 6.39689e-18 0
0.234375 2.6242e-18 0
0.121094 2.68772e-17 0
0.121094 -6.95576e-17 0
0.234375 2.6242e-18 0
0.234375 -9.67445e-17 0
0.234375 6.39689e-18 0
0.234375 2.6242e-18 0
0.339844 1.14254e-17 0
0.339844 -3.56691e-17 0
0.234375 2.6242e-18 0
0.234375 -9.67445e-17 0
0.339844 -3.56691e-17 0
0.339844 -7.51272e-17 0
0.339844 1.14254e-17 0
0.339844 -3.56691e-17 0
0.4375 9.09158e-17 0
0.4375 -3.48713e-17 0
0.339844 -3.56691e-17 0
0.339844 -7.51272e-17 0
0.4375 -3.48713e-17 0
0.4375 -3.91674e-17 0
0.234375 -9.67445e-17 0
0.234375 -3.42834e-17 0
0.339844 -7.51272e-17 0
0.339844 -2.86182e-17 0
0.234375 -3.42834e-17 0
0.234375 2.48248e-16 0
0.339844 -2.86182e-17 0
0.339844 1.36597e-16 0
0.339844 -7.51272e-17 0
0.339844 -2.86182e-17 0
0.4375 -3.91674e-17 0
0.4375 3.27472e-18 0
0.339844 -2.86182e-17 0
0.339844 1.36597e-16 0
0.4375 3.27472e-18 0
0.4375 -4.37338e-17 0
0.234375 2.48248e-16 0
0.234375 -3.08429e-16 0
0.339844 1.36597e-16 0
0.339844 -2.52432e-16 0
0.234375 -3.08429e-16 0
0.234375 2.98653e-16 0
0.339844 -2.52432e-16 0
0.339844 3.37716e-16 0
0.339844 1.36597e-16 0
0.339844 -2.52432e-16 0
0.4375 -4.37338e-17 0
0.4375 1.02966e-17 0
0.339844 -2.52432e-16 0
0.339844 3.37716e-16 0
0.4375 1.02966e-17 0
0.4375 1.3911e-16 0
0.234375 2.98653e-16 0
0.234375 -1.5019e-16 0
0.339844 3.37716e-16 0
0.339844 -1.20145e-16 0
0.234375 -1.5019e-16 0
0.234375 -1.42996e-17 0
0.339844 -1.20145e-16 0
0.339844 8.41723e-18 0
0.339844 3.37716e-16 0
0.339844 -1.20145e-16 0
0.4375 1.3911e-16 0
0.4375 5.88781e-17 0
0.339844 -1.20145e-16 0
0.339844 8.41723e-18 0
0.4375 5.88781e-17 0
0.4375 -3.98396e-17 0
0.4375 9.09158e-17 0
0.4375 -3.48713e-17 0
0.527344 -1.41908e-16 0
0.527344 -8.98334e-17 0
0.4375 -3.48713e-17 0
0.4375 -3.91674e-17 0
0.527344 -8.98334e-17 0
0.527344 6.17205e-17 0
0.527344 -1.41908e-16 0
0.527344 -8.98334e-17 0
0.609375 -1.24694e-16 0
0.609375 1.89939e-17 0
0.527344 -8.98334e-17 0
0.527344 6.17205e-17 0
0.609375 1.89939e-17 0
0.609375 -1.73653e-17 0
0.609375 -1.24694e-16 0
0.609375 1.89939e-17 0
0.683594 -4.3693e-18 0
0.683594 2.6762e-17 0
0.609375 1.89939e-17 0
0.609375 -1.73653e-17 0
0.683594 2.6762e-17 0
0.683594 -2.58142e-16 0
0.683594 -4.3693e-18 0
0.683594 2.6762e-17 0
0.75 -2.70414e-17 0
0.75 -6.32251e-17 0
0.683594 2.6762e-17 0
0.683594 -2.58142e-16 0
0.75 -6.32251e-17 0
0.75 -4.10565e-17 0
0.4375 -4.37338e-17 0
0.4375 1.02966e-17 0
0.527344 1.01749e-16 0
0.527344 7.9045e-17 0
0.4375 1.02966e-17 0
0.4375 1.3911e-16 0
0.527344 7.9045e-17 0
0.527344 5.73443e-17 0
0.527344 1.01749e-16 0
0.527344 7.9045e-17 0
0.609375 -4.51093e-17 0
0.609375 2.64985e-16 0
0.527344 7.9045e-17 0
0.527344 5.73443e-17 0
0.609375 2.64985e-16 0
0.609375 -2.38678e-16 0
0.4375 1.3911e-16 0
0.4375 5.88781e-17 0
0.527344 5.73443e-17 0
0.527344 5.32358e-17 0
0.4375 5.88781e-17 0
0.4375 -3.98396e-17 0
0.527344 5.32358e-17 0
0.527344 3.80834e-17 0
0.527344 5.73443e-17 0
0.527344 5.32358e-17 0
0.609375 -2.38678e-16 0
0.609375 2.38919e-16 0
0.527344 5.32358e-17 0
0.527344 3.80834e-17 0
0.609375 2.38919e-16 0
0.609375 -1.22602e-16 0
0.75 2.44359e-16 0
0.75 -5.55255e-17 0
0.808594 -7.79873e-17 0
0.808594 1.93964e-16 0
0.75 -5.55255e-17 0
0.75 1.74683e-16 0
0.808594 1.93964e-16 0
0.808594 4.4768e-17 0
0.808594 -7.79873e-17 0
0.808594 1.93964e-16 0
0.859375 6.77095e-17 0
0.859375 8.80504e-17 0
0.808594 1.93964e-16 0
0.808594 4.4768e-17 0
0.859375 8.80504e-17 0
0.859375 -4.06887e-16 0
0.75 1.74683e-16 0
0.75 -5.57878e-16 0
0.808594 4.4768e-17 0
0.808594 -2.05443e-16 0
0.75 -5.57878e-16 0
0.75 -5.45517e-17 0
0.808594 -2.05443e-16 0
0.808594 -5.39807e-17 0
0.808594 4.4768e-17 0
0.808594 -2.05443e-16 0
0.859375 -4.06887e-16 0
0.859375 2.84196e-16 0
0.808594 -2.05443e-16 0
0.808594 -5.39807e-17 0
0.859375 2.84196e-16 0
0.859375 -4.42008e-16 0
0.859375 6.77095e-17 0
0.859375 8.80504e-17 0
0.902344 -1.71385e-16 0
0.902344 7.81021e-17 0
0.859375 8.80504e-17 0
0.859375 -4.06887e-16 0
0.902344 7.81021e-17 0
0.902344 -1.77166e-16 0
0.902344 -1.71385e-16 0
0.902344 7.81021e-17 0
0.9375 -9.74452e-17 0
0.9375 -4.08086e-16 0
0.902344 7.81021e-17 0
0.902344 -1.77166e-16 0
0.9375 -4.08086e-16 0
0.9375 1.47341e-16 0
0.75 4.47096e-17 0
0.75 2.90138e-17 0
0.808594 -2.16067e-16 0
0.808594 1.49174e-16 0
0.75 2.90138e-17 0
0.75 -2.70414e-17 0
0.808594 1.49174e-16 0
0.808594 1.52495e-16 0
0.808594 -2.16067e-16 0
0.808594 1.49174e-16 0
0.859375 -2.99038e-16 0
0.859375 3.47739e-16 0
0.808594 1.49174e-16 0
0.808594 1.52495e-16 0
0.859375 3.47739e-16 0
0.859375 -1.7644e-16 0
0.859375 -2.99038e-16 0
0.859375 3.47739e-16 0
0.902344 4.85596e-17 0
0.902344 4.31565e-17 0
0.859375 3.47739e-16 0
0.859375 -1.7644e-16 0
0.902344 4.31565e-17 0
0.902344 5.97818e-17 0
0.902344 4.85596e-17 0
0.902344 4.31565e-17 0
0.9375 3.03016e-16 0
0.9375 -9.1999e-18 0
0.902344 4.31565e-17 0
0.902344 5.97818e-17 0
0.9375 -9.1999e-18 0
0.9375 -1.2624e-16 0
0.984375 -2.24025e-16 0
0.984375 8.29858e-17 0
0.996094 -5.03612e-17 0
0.996094 7.94967e-17 0
0.984375 8.29858e-17 0
0.984375 1.58339e-17 0
0.996094 7.94967e-17 0
0.996094 7.86001e-17 0
0.996094 -5.03612e-17 0
0.996094 7.94967e-17 0
1 1.87706e-16 0
1 -5.71272e-17 0
0.996094 7.94967e-17 0
0.996094 7.86001e-17 0
1 -5.71272e-17 0
1 -1.07595e-16 0
0.9375 3.03016e-16 0
0.9375 -9.1999e-18 0
0.964844 -3.00946e-16 0
0.964844 5.41069e-18 0
0.9375 -9.1999e-18 0
0.9375 -1.2624e-16 0
0.964844 5.41069e-18 0
0.964844 -1.43624e-16 0
0.964844 -3.00946e-16 0
0.964844 5.41069e-18 0
0.984375 -9.39041e-18 0
0.984375 -1.08881e-16 0
0.964844 5.41069e-18 0
0.964844 -1.43624e-16 0
0.984375 -1.08881e-16 0
0.984375 -1.70764e-17 0
0.984375 -9.39041e-18 0
0.984375 -1.08881e-16 0
0.996094 2.37237e-16 0
0.996094 -3.16003e-16 0
0.984375 -1.08881e-16 0
0.984375 -1.70764e-17 0
0.996094 -3.16003e-16 0
0.996094 -1.73793e-17 0
0.996094 2.37237e-16 0
0.996094 -3.16003e-16 0
1 -2.14865e-17 0
1 -3.47256e-16 0
0.996094 -3.16003e-16 0
0.996094 -1.73793e-17 0
1 -3.47256e-16 0
1 -1.56132e-17 0
0.75 -3.3529e-16 0
0.75 3.7885e-17 0
0.808594 -1.67245e-17 0
0.808594 -6.05381e-17 0
0.75 3.7885e-17 0
0.75 -5.3812e-17 0
0.808594 -6.05381e-17 0
0.808594 5.35018e-17 0
0.808594 -1.67245e-17 0
0.808594 -6.05381e-17 0
0.859375 -9.84064e-18 0
0.859375 -1.25209e-16 0
0.808594 -6.05381e-17 0
0.808594 5.35018e-17 0
0.859375 -1.25209e-16 0
0.859375 -1.86082e-16 0
0.984375 -4.06956e-17 0
0.984375 2.60411e-16 0
0.996094 -9.47613e-18 0
0.996094 3.8662e-17 0
0.984375 2.60411e-16 0
0.984375 -2.31035e-16 0
0.996094 3.8662e-17 0
0.996094 -2.04786e-16 0
0.996094 -9.47613e-18 0
0.996094 3.8662e-17 0
1 1.3779e-16 0
1 -3.13491e-16 0
0.996094 3.8662e-17 0
0.996094 -2.04786e-16 0
1 -3.13491e-16 0
1 2.37541e-16 0
0.984375 -2.31035e-16 0
0.984375 1.61771e-16 0
0.996094 -2.04786e-16 0
0.996094 2.33529e-16 0
0.984375 1.61771e-16 0
0.984375 1.33598e-16 0
0.996094 2.33529e-16 0
0.996094 -8.58737e-17 0
0.996094 -2.04786e-16 0
0.996094 2.33529e-16 0
1 2.37541e-16 0
1 -2.3226e-16 0
0.996094 2.33529e-16 0
0.996094 -8.58737e-17 0
1 -2.3226e-16 0
1 -6.24208e-17 0
0.984375 0 0
0.984375 1.84311e-16 0
0.964844 0 0
0.964844 2.02969e-16 0
0.984375 1.84311e-16 0
0.984375 8.0357e-17 0
0.964844 2.02969e-16 0
0.964844 -3.69584e-16 0
0.964844 0 0
0.964844 2.02969e-16 0
0.9375 0 0
0.9375 -5.45195e-16 0
0.964844 2.02969e-16 0
0.964844 -3.69584e-16 0
0.9375 -5.45195e-16 0
0.9375 3.96038e-16 0
0.984375 8.0357e-17 0
0.984375 -3.66022e-17 0
0.964844 -3.69584e-16 0
0.964844 1.38459e-16 0
0.984375 -3.66022e-17 0
0.984375 -4.84452e-17 0
0.964844 1.38459e-16 0
0.964844 -6.92784e-17 0
0.964844 -3.69584e-16 0
0.964844 1.38459e-16 0
0.9375 3.96038e-16 0