# vtk DataFile Version 3.0
#This file was generated by the deal.II library on 2026/3/20 at 15:27:02
ASCII
DATASET UNSTRUCTURED_GRID

POINTS 4096 double
0 0 0
0.03125 0 0
0 0.03125 0
0.03125 0.03125 0
0.03125 0 0
0.0625 0 0
0.03125 0.03125 0
0.0625 0.03125 0
0 0.03125 0
0.03125 0.03125 0
0 0.0625 0
0.03125 0.0625 0
0.03125 0.03125 0
0.0625 0.03125 0
0.03125 0.0625 0
0.0625 0.0625 0
0.0625 0 0
0.09375 0 0
0.0625 0.03125 0
0.09375 0.03125 0
0.09375 0 0
0.125 0 0
0.09375 0.03125 0
0.125 0.03125 0
0.0625 0.03125 0
0.09375 0.03125 0
0.0625 0.0625 0
0.09375 0.0625 0
0.09375 0.03125 0
0.125 0.03125 0
0.09375 0.0625 0
0.125 0.0625 0
0 0.0625 0
0.03125 0.0625 0
0 0.09375 0
0.03125 0.09375 0
0.03125 0.0625 0
0.0625 0.0625 0
0.03125 0.09375 0
0.0625 0.09375 0
0 0.09375 0
0.03125 0.09375 0
0 0.125 0
0.03125 0.125 0
0.03125 0.09375 0
0.0625 0.09375 0
0.03125 0.125 0
0.0625 0.125 0
0.0625 0.0625 0
0.09375 0.0625 0
0.0625 0.09375 0
0.09375 0.09375 0
0.09375 0.0625 0
0.125 0.0625 0
0.09375 0.09375 0
0.125 0.09375 0
0.0625 0.09375 0
0.09375 0.09375 0
0.0625 0.125 0
0.09375 0.125 0
0.09375 0.09375 0
0.125 0.09375 0
0.09375 0.125 0
0.125 0.125 0
0.125 0 0
0.15625 0 0
0.125 0.03125 0
0.15625 0.03125 0
0.15625 0 0
0.1875 0 0
0.15625 0.03125 0
0.1875 0.03125 0
0.125 0.03125 0
0.15625 0.03125 0
0.125 0.0625 0
0.15625 0.0625 0
0.15625 0.03125 0
0.1875 0.03125 0
0.15625 0.0625 0
0.1875 0.0625 0
0.1875 0 0
0.21875 0 0
0.1875 0.03125 0
0.21875 0.03125 0
0.21875 0 0
0.25 0 0
0.21875 0.03125 0
0.25 0.03125 0
0.1875 0.03125 0
0.21875 0.03125 0
0.1875 0.0625 0
0.21875 0.0625 0
0.21875 0.03125 0
0.25 0.03125 0
0.21875 0.0625 0
0.25 0.0625 0
0.125 0.0625 0
0.15625 0.0625 0
0.125 0.09375 0
0.15625 0.09375 0
0.15625 0.0625 0
0.1875 0.0625 0
0.15625 0.09375 0
0.1875 0.09375 0
0.125 0.09375 0
0.15625 0.09375 0
0.125 0.125 0
0.15625 0.125 0
0.15625 0.09375 0
0.1875 0.09375 0
0.15625 0.125 0
0.1875 0.125 0
0.1875 0.0625 0
0.21875 0.0625 0
0.1875 0.09375 0
0.21875 0.09375 0
0.21875 0.0625 0
0.25 0.0625 0
0.21875 0.09375 0
0.25 0.09375 0
0.1875 0.09375 0
0.21875 0.09375 0
0.1875 0.125 0
0.21875 0.125 0
0.21875 0.09375 0
0.25 0.09375 0
0.21875 0.125 0
0.25 0.125 0
0 0.125 0
0.03125 0.125 0
0 0.15625 0
0.03125 0.15625 0
0.03125 0.125 0
0.0625 0.125 0
0.03125 0.15625 0
0.0625 0.15625 0
0 0.15625 0
0.03125 0.15625 0
0 0.1875 0
0.03125 0.1875 0
0.03125 0.15625 0
0.0625 0.15625 0
0.03125 0.1875 0
0.0625 0.1875 0
0.0625 0.125 0
0.09375 0.125 0
0.0625 0.15625 0
0.09375 0.15625 0
0.09375 0.125 0
0.125 0.125 0
0.09375 0.15625 0
0.125 0.15625 0
0.0625 0.15625 0
0.09375 0.15625 0
0.0625 0.1875 0
0.09375 0.1875 0
0.09375 0.15625 0
0.125 0.15625 0
0.09375 0.1875 0
0.125 0.1875 0
0 0.1875 0
0.03125 0.1875 0
0 0.21875 0
0.03125 0.21875 0
0.03125 0.1875 0
0.0625 0.1875 0
0.03125 0.21875 0
0.0625 0.21875 0
0 0.21875 0
0.03125 0.21875 0
0 0.25 0
0.03125 0.25 0
0.03125 0.21875 0
0.0625 0.21875 0
0.03125 0.25 0
0.0625 0.25 0
0.0625 0.1875 0
0.09375 0.1875 0
0.0625 0.21875 0
0.09375 0.21875 0
0.09375 0.1875 0
0.125 0.1875 0
0.09375 0.21875 0
0.125 0.21875 0
0.0625 0.21875 0
0.09375 0.21875 0
0.0625 0.25 0
0.09375 0.25 0
0.09375 0.21875 0
0.125 0.21875 0
0.09375 0.25 0
0.125 0.25 0
0.125 0.125 0
0.15625 0.125 0
0.125 0.15625 0
0.15625 0.15625 0
0.15625 0.125 0
0.1875 0.125 0
0.15625 0.15625 0
0.1875 0.15625 0
0.125 0.15625 0
0.15625 0.15625 0
0.125 0.1875 0
0.15625 0.1875 0
0.15625 0.15625 0
0.1875 0.15625 0
0.15625 0.1875 0
0.1875 0.1875 0
0.1875 0.125 0
0.21875 0.125 0
0.1875 0.15625 0
0.21875 0.15625 0
0.21875 0.125 0
0.25 0.125 0
0.21875 0.15625 0
0.25 0.15625 0
0.1875 0.15625 0
0.21875 0.15625 0
0.1875 0.1875 0
0.21875 0.1875 0
0.21875 0.15625 0
0.25 0.15625 0
0.21875 0.1875 0
0.25 0.1875 0
0.125 0.1875 0
0.15625 0.1875 0
0.125 0.21875 0
0.15625 0.21875 0
0.15625 0.1875 0
0.1875 0.1875 0
0.15625 0.21875 0
0.1875 0.21875 0
0.125 0.21875 0
0.15625 0.21875 0
0.125 0.25 0
0.15625 0.25 0
0.15625 0.21875 0
0.1875 0.21875 0
0.15625 0.25 0
0.1875 0.25 0
0.1875 0.1875 0
0.21875 0.1875 0
0.1875 0.21875 0
0.21875 0.21875 0
0.21875 0.1875 0
0.25 0.1875 0
0.21875 0.21875 0
0.25 0.21875 0
0.1875 0.21875 0
0.21875 0.21875 0
0.1875 0.25 0
0.21875 0.25 0
0.21875 0.21875 0
0.25 0.21875 0
0.21875 0.25 0
0.25 0.25 0
0.25 0 0
0.28125 0 0
0.25 0.03125 0
0.28125 0.03125 0
0.28125 0 0
0.3125 0 0
0.28125 0.03125 0
0.3125 0.03125 0
0.25 0.03125 0
0.28125 0.03125 0
0.25 0.0625 0
0.28125 0.0625 0
0.28125 0.03125 0
0.3125 0.03125 0
0.28125 0.0625 0
0.3125 0.0625 0
0.3125 0 0
0.34375 0 0
0.3125 0.03125 0
0.34375 0.03125 0
0.34375 0 0
0.375 0 0
0.34375 0.03125 0
0.375 0.03125 0
0.3125 0.03125 0
0.34375 0.03125 0
0.3125 0.0625 0
0.34375 0.0625 0
0.34375 0.03125 0
0.375 0.03125 0
0.34375 0.0625 0
0.375 0.0625 0
0.25 0.0625 0
0.28125 0.0625 0
0.25 0.09375 0
0.28125 0.09375 0
0.28125 0.0625 0
0.3125 0.0625 0
0.28125 0.09375 0
0.3125 0.09375 0
0.25 0.09375 0
0.28125 0.09375 0
0.25 0.125 0
0.28125 0.125 0
0.28125 0.09375 0
0.3125 0.09375 0
0.28125 0.125 0
0.3125 0.125 0
0.3125 0.0625 0
0.34375 0.0625 0
0.3125 0.09375 0
0.34375 0.09375 0
0.34375 0.0625 0
0.375 0.0625 0
0.34375 0.09375 0
0.375 0.09375 0
0.3125 0.09375 0
0.34375 0.09375 0
0.3125 0.125 0
0.34375 0.125 0
0.34375 0.09375 0
0.375 0.09375 0
0.34375 0.125 0
0.375 0.125 0
0.375 0 0
0.40625 0 0
0.375 0.03125 0
0.40625 0.03125 0
0.40625 0 0
0.4375 0 0
0.40625 0.03125 0
0.4375 0.03125 0
0.375 0.03125 0
0.40625 0.03125 0
0.375 0.0625 0
0.40625 0.0625 0
0.40625 0.03125 0
0.4375 0.03125 0
0.40625 0.0625 0
0.4375 0.0625 0
0.4375 0 0
0.46875 0 0
0.4375 0.03125 0
0.46875 0.03125 0
0.46875 0 0
0.5 0 0
0.46875 0.03125 0
0.5 0.03125 0
0.4375 0.03125 0
0.46875 0.03125 0
0.4375 0.0625 0
0.46875 0.0625 0
0.46875 0.03125 0
0.5 0.03125 0
0.46875 0.0625 0
0.5 0.0625 0
0.375 0.0625 0
0.40625 0.0625 0
0.375 0.09375 0
0.40625 0.09375 0
0.40625 0.0625 0
0.4375 0.0625 0
0.40625 0.09375 0
0.4375 0.09375 0
0.375 0.09375 0
0.40625 0.09375 0
0.375 0.125 0
0.40625 0.125 0
0.40625 0.09375 0
0.4375 0.09375 0
0.40625 0.125 0
0.4375 0.125 0
0.4375 0.0625 0
0.46875 0.0625 0
0.4375 0.09375 0
0.46875 0.09375 0
0.46875 0.0625 0
0.5 0.0625 0
0.46875 0.09375 0
0.5 0.09375 0
0.4375 0.09375 0
0.46875 0.09375 0
0.4375 0.125 0
0.46875 0.125 0
0.46875 0.09375 0
0.5 0.09375 0
0.46875 0.125 0
0.5 0.125 0
0.25 0.125 0
0.28125 0.125 0
0.25 0.15625 0
0.28125 0.15625 0
0.28125 0.125 0
0.3125 0.125 0
0.28125 0.15625 0
0.3125 0.15625 0
0.25 0.15625 0
0.28125 0.15625 0
0.25 0.1875 0
0.28125 0.1875 0
0.28125 0.15625 0
0.3125 0.15625 0
0.28125 0.1875 0
0.3125 0.1875 0
0.3125 0.125 0
0.34375 0.125 0
0.3125 0.15625 0
0.34375 0.15625 0
0.34375 0.125 0
0.375 0.125 0
0.34375 0.15625 0
0.375 0.15625 0
0.3125 0.15625 0
0.34375 0.15625 0
0.3125 0.1875 0
0.34375 0.1875 0
0.34375 0.15625 0
0.375 0.15625 0
0.34375 0.1875 0
0.375 0.1875 0
0.25 0.1875 0
0.28125 0.1875 0
0.25 0.21875 0
0.28125 0.21875 0
0.28125 0.1875 0
0.3125 0.1875 0
0.28125 0.21875 0
0.3125 0.21875 0
0.25 0.21875 0
0.28125 0.21875 0
0.25 0.25 0
0.28125 0.25 0
0.28125 0.21875 0
0.3125 0.21875 0
0.28125 0.25 0
0.3125 0.25 0
0.3125 0.1875 0
0.34375 0.1875 0
0.3125 0.21875 0
0.34375 0.21875 0
0.34375 0.1875 0
0.375 0.1875 0
0.34375 0.21875 0
0.375 0.21875 0
0.3125 0.21875 0
0.34375 0.21875 0
0.3125 0.25 0
0.34375 0.25 0
0.34375 0.21875 0
0.375 0.21875 0
0.34375 0.25 0
0.375 0.25 0
0.375 0.125 0
0.40625 0.125 0
0.375 0.15625 0
0.40625 0.15625 0
0.40625 0.125 0
0.4375 0.125 0
0.40625 0.15625 0
0.4375 0.15625 0
0.375 0.15625 0
0.40625 0.15625 0
0.375 0.1875 0
0.40625 0.1875 0
0.40625 0.15625 0
0.4375 0.15625 0
0.40625 0.1875 0
0.4375 0.1875 0
0.4375 0.125 0
0.46875 0.125 0
0.4375 0.15625 0
0.46875 0.15625 0
0.46875 0.125 0
0.5 0.125 0
0.46875 0.15625 0
0.5 0.15625 0
0.4375 0.15625 0
0.46875 0.15625 0
0.4375 0.1875 0
0.46875 0.1875 0
0.46875 0.15625 0
0.5 0.15625 0
0.46875 0.1875 0
0.5 0.1875 0
0.375 0.1875 0
0.40625 0.1875 0
0.375 0.21875 0
0.40625 0.21875 0
0.40625 0.1875 0
0.4375 0.1875 0
0.40625 0.21875 0
0.4375 0.21875 0
0.375 0.21875 0
0.40625 0.21875 0
0.375 0.25 0
0.40625 0.25 0
0.40625 0.21875 0
0.4375 0.21875 0
0.40625 0.25 0
0.4375 0.25 0
0.4375 0.1875 0
0.46875 0.1875 0
0.4375 0.21875 0
0.46875 0.21875 0
0.46875 0.1875 0
0.5 0.1875 0
0.46875 0.21875 0
0.5 0.21875 0
0.4375 0.21875 0
0.46875 0.21875 0
0.4375 0.25 0
0.46875 0.25 0
0.46875 0.21875 0
0.5 0.21875 0
0.46875 0.25 0
0.5 0.25 0
0 0.25 0
0.03125 0.25 0
0 0.28125 0
0.03125 0.28125 0
0.03125 0.25 0
0.0625 0.25 0
0.03125 0.28125 0
0.0625 0.28125 0
0 0.28125 0
0.03125 0.28125 0
0 0.3125 0
0.03125 0.3125 0
0.03125 0.28125 0
0.0625 0.28125 0
0.03125 0.3125 0
0.0625 0.3125 0
0.0625 0.25 0
0.09375 0.25 0
0.0625 0.28125 0
0.09375 0.28125 0
0.09375 0.25 0
0.125 0.25 0
0.09375 0.28125 0
0.125 0.28125 0
0.0625 0.28125 0
0.09375 0.28125 0
0.0625 0.3125 0
0.09375 0.3125 0
0.09375 0.28125 0
0.125 0.28125 0
0.09375 0.3125 0
0.125 0.3125 0
0 0.3125 0
0.03125 0.3125 0
0 0.34375 0
0.03125 0.34375 0
0.03125 0.3125 0
0.0625 0.3125 0
0.03125 0.34375 0
0.0625 0.34375 0
0 0.34375 0
0.03125 0.34375 0
0 0.375 0
0.03125 0.375 0
0.03125 0.34375 0
0.0625 0.34375 0
0.03125 0.375 0
0.0625 0.375 0
0.0625 0.3125 0
0.09375 0.3125 0
0.0625 0.34375 0
0.09375 0.34375 0
0.09375 0.3125 0
0.125 0.3125 0
0.09375 0.34375 0
0.125 0.34375 0
0.0625 0.34375 0
0.09375 0.34375 0
0.0625 0.375 0
0.09375 0.375 0
0.09375 0.34375 0
0.125 0.34375 0
0.09375 0.375 0
0.125 0.375 0
0.125 0.25 0
0.15625 0.25 0
0.125 0.28125 0
0.15625 0.28125 0
0.15625 0.25 0
0.1875 0.25 0
0.15625 0.28125 0
0.1875 0.28125 0
0.125 0.28125 0
0.15625 0.28125 0
0.125 0.3125 0
0.15625 0.3125 0
0.15625 0.28125 0
0.1875 0.28125 0
0.15625 0.3125 0
0.1875 0.3125 0
0.1875 0.25 0
0.21875 0.25 0
0.1875 0.28125 0
0.21875 0.28125 0
0.21875 0.25 0
0.25 0.25 0
0.21875 0.28125 0
0.25 0.28125 0
0.1875 0.28125 0
0.21875 0.28125 0
0.1875 0.3125 0
0.21875 0.3125 0
0.21875 0.28125 0
0.25 0.28125 0
0.21875 0.3125 0
0.25 0.3125 0
0.125 0.3125 0
0.15625 0.3125 0
0.125 0.34375 0
0.15625 0.34375 0
0.15625 0.3125 0
0.1875 0.3125 0
0.15625 0.34375 0
0.1875 0.34375 0
0.125 0.34375 0
[...]
POINT_DATA 4096
VECTORS velocity double
0 0 0
0 0 0
0.121094 0 0
0.121094 -2.12155e-11 0
0 0 0
0 0 0
0.121094 -2.12155e-11 0
0.121094 4.28082e-10 0
0.121094 0 0
0.121094 -2.12155e-11 0
0.234375 0 0
0.234375 1.05402e-09 0
0.121094 -2.12155e-11 0
0.121094 4.28082e-10 0
0.234375 1.05402e-09 0
0.234375 3.96836e-10 0
0 0 0
0 0 0
0.121094 4.28082e-10 0
0.121094 3.7941e-11 0
0 0 0
0 0 0
0.121094 3.7941e-11 0
0.121094 7.93672e-11 0
0.121094 4.28082e-10 0
0.121094 3.7941e-11 0
0.234375 3.96836e-10 0
0.234375 2.4557e-10 0
0.121094 3.7941e-11 0
0.121094 7.93672e-11 0
0.234375 2.4557e-10 0
0.234375 1.26222e-10 0
0.234375 0 0
0.234375 1.05402e-09 0
0.339844 0 0
0.339844 9.19526e-10 0
0.234375 1.05402e-09 0
0.234375 3.96836e-10 0
0.339844 9.19526e-10 0
0.339844 5.70772e-10 0
0.339844 0 0
0.339844 9.19526e-10 0
0.4375 0 0
0.4375 7.18296e-10 0
0.339844 9.19526e-10 0
0.339844 5.70772e-10 0
0.4375 7.18296e-10 0
0.4375 4.90423e-10 0
0.234375 3.96836e-10 0
0.234375 2.4557e-10 0
0.339844 5.70772e-10 0
0.339844 3.68057e-10 0
0.234375 2.4557e-10 0
0.234375 1.26222e-10 0
0.339844 3.68057e-10 0
0.339844 2.56744e-10 0
0.339844 5.70772e-10 0
0.339844 3.68057e-10 0
0.4375 4.90423e-10 0
0.4375 3.66828e-10 0
0.339844 3.68057e-10 0
0.339844 2.56744e-10 0
0.4375 3.66828e-10 0
0.4375 2.77091e-10 0
0 0 0
0 0 0
0.121094 7.93672e-11 0
0.121094 3.32233e-11 0
0 0 0
0 0 0
0.121094 3.32233e-11 0
0.121094 2.77371e-11 0
0.121094 7.93672e-11 0
0.121094 3.32233e-11 0
0.234375 1.26222e-10 0
0.234375 8.23103e-11 0
0.121094 3.32233e-11 0
0.121094 2.77371e-11 0
0.234375 8.23103e-11 0
0.234375 5.32973e-11 0
0 0 0
0 0 0
0.121094 2.77371e-11 0
0.121094 1.71077e-11 0
0 0 0
0 0 0
0.121094 1.71077e-11 0
0.121094 9.58618e-12 0
0.121094 2.77371e-11 0
0.121094 1.71077e-11 0
0.234375 5.32973e-11 0
0.234375 3.42562e-11 0
0.121094 1.71077e-11 0
0.121094 9.58618e-12 0
0.234375 3.42562e-11 0
0.234375 1.6412e-11 0
0.234375 1.26222e-10 0
0.234375 8.23103e-11 0
0.339844 2.56744e-10 0
0.339844 1.89702e-10 0
0.234375 8.23103e-11 0
0.234375 5.32973e-11 0
0.339844 1.89702e-10 0
0.339844 1.46082e-10 0
0.339844 2.56744e-10 0
0.339844 1.89702e-10 0
0.4375 2.77091e-10 0
0.4375 2.19171e-10 0
0.339844 1.89702e-10 0
0.339844 1.46082e-10 0
0.4375 2.19171e-10 0
0.4375 1.73539e-10 0
0.234375 5.32973e-11 0
0.234375 3.42562e-11 0
0.339844 1.46082e-10 0
0.339844 1.10247e-10 0
0.234375 3.42562e-11 0
0.234375 1.6412e-11 0
0.339844 1.10247e-10 0
0.339844 7.58882e-11 0
0.339844 1.46082e-10 0
0.339844 1.10247e-10 0
0.4375 1.73539e-10 0
0.4375 1.31086e-10 0
0.339844 1.10247e-10 0
0.339844 7.58882e-11 0
0.4375 1.31086e-10 0
0.4375 8.654e-11 0
0.4375 0 0
0.4375 7.18296e-10 0
0.527344 0 0
0.527344 5.05915e-10 0
0.4375 7.18296e-10 0
0.4375 4.90423e-10 0
0.527344 5.05915e-10 0
0.527344 4.00127e-10 0
0.527344 0 0
0.527344 5.05915e-10 0
0.609375 0 0
0.609375 3.47517e-10 0
0.527344 5.05915e-10 0
0.527344 4.00127e-10 0
0.609375 3.47517e-10 0
0.609375 3.06818e-10 0
0.4375 4.90423e-10 0
0.4375 3.66828e-10 0
0.527344 4.00127e-10 0
0.527344 3.29048e-10 0
0.4375 3.66828e-10 0
0.4375 2.77091e-10 0
0.527344 3.29048e-10 0
0.527344 2.72377e-10 0
0.527344 4.00127e-10 0
0.527344 3.29048e-10 0
0.609375 3.06818e-10 0
0.609375 2.80868e-10 0
0.527344 3.29048e-10 0
0.527344 2.72377e-10 0
0.609375 2.80868e-10 0
0.609375 2.50981e-10 0
0.609375 0 0
0.609375 3.47517e-10 0
0.683594 0 0
0.683594 2.36792e-10 0
0.609375 3.47517e-10 0
0.609375 3.06818e-10 0
0.683594 2.36792e-10 0
0.683594 2.39172e-10 0
0.683594 0 0
0.683594 2.36792e-10 0
0.75 0 0
0.75 1.66243e-10 0
0.683594 2.36792e-10 0
0.683594 2.39172e-10 0
0.75 1.66243e-10 0
0.75 1.94213e-10 0
0.609375 3.06818e-10 0
0.609375 2.80868e-10 0
0.683594 2.39172e-10 0
0.683594 2.41469e-10 0
0.609375 2.80868e-10 0
0.609375 2.50981e-10 0
0.683594 2.41469e-10 0
0.683594 2.30611e-10 0
0.683594 2.39172e-10 0
0.683594 2.41469e-10 0
0.75 1.94213e-10 0
0.75 2.14798e-10 0
0.683594 2.41469e-10 0
0.683594 2.30611e-10 0
0.75 2.14798e-10 0
0.75 2.15519e-10 0
0.4375 2.77091e-10 0
0.4375 2.19171e-10 0
0.527344 2.72377e-10 0
0.527344 2.26178e-10 0
0.4375 2.19171e-10 0
0.4375 1.73539e-10 0
0.527344 2.26178e-10 0
0.527344 1.81676e-10 0
0.527344 2.72377e-10 0
0.527344 2.26178e-10 0
0.609375 2.50981e-10 0
0.609375 2.17157e-10 0
0.527344 2.26178e-10 0
0.527344 1.81676e-10 0
0.609375 2.17157e-10 0
0.609375 1.74635e-10 0
0.4375 1.73539e-10 0
0.4375 1.31086e-10 0
0.527344 1.81676e-10 0
0.527344 1.33313e-10 0
0.4375 1.31086e-10 0
0.4375 8.654e-11 0
0.527344 1.33313e-10 0
0.527344 7.87438e-11 0
0.527344 1.81676e-10 0
0.527344 1.33313e-10 0
0.609375 1.74635e-10 0
0.609375 1.21554e-10 0
0.527344 1.33313e-10 0
0.527344 7.87438e-11 0
0.609375 1.21554e-10 0
0.609375 5.80476e-11 0
0.609375 2.50981e-10 0
0.609375 2.17157e-10 0
0.683594 2.30611e-10 0
0.683594 2.05042e-10 0
0.609375 2.17157e-10 0
0.609375 1.74635e-10 0
0.683594 2.05042e-10 0
0.683594 1.62954e-10 0
0.683594 2.30611e-10 0
0.683594 2.05042e-10 0
0.75 2.15519e-10 0
0.75 1.94412e-10 0
0.683594 2.05042e-10 0
0.683594 1.62954e-10 0
0.75 1.94412e-10 0
0.75 1.51222e-10 0
0.609375 1.74635e-10 0
0.609375 1.21554e-10 0
0.683594 1.62954e-10 0
0.683594 1.04863e-10 0
0.609375 1.21554e-10 0
0.609375 5.80476e-11 0
0.683594 1.04863e-10 0
0.683594 3.29713e-11 0
0.683594 1.62954e-10 0
0.683594 1.04863e-10 0
0.75 1.51222e-10 0
0.75 8.8212e-11 0
0.683594 1.04863e-10 0
0.683594 3.29713e-11 0
0.75 8.8212e-11 0
0.75 9.11802e-12 0
0 0 0
0 0 0
0.121094 9.58618e-12 0
0.121094 1.18006e-12 0
0 0 0
0 0 0
0.121094 1.18006e-12 0
0.121094 -7.53879e-12 0
0.121094 9.58618e-12 0
0.121094 1.18006e-12 0
0.234375 1.6412e-11 0
0.234375 -2.19807e-12 0
0.121094 1.18006e-12 0
0.121094 -7.53879e-12 0
0.234375 -2.19807e-12 0
0.234375 -2.23389e-11 0
0 0 0
0 0 0
0.121094 -7.53879e-12 0
0.121094 -1.65969e-11 0
0 0 0
0 0 0
0.121094 -1.65969e-11 0
0.121094 -2.55816e-11 0
0.121094 -7.53879e-12 0
0.121094 -1.65969e-11 0
0.234375 -2.23389e-11 0
0.234375 -4.35424e-11 0
0.121094 -1.65969e-11 0
0.121094 -2.55816e-11 0
0.234375 -4.35424e-11 0
0.234375 -6.48324e-11 0
0.234375 1.6412e-11 0
0.234375 -2.19807e-12 0
0.339844 7.58882e-11 0
0.339844 4.01068e-11 0
0.234375 -2.19807e-12 0
0.234375 -2.23389e-11 0
0.339844 4.01068e-11 0
0.339844 2.53329e-12 0
0.339844 7.58882e-11 0
0.339844 4.01068e-11 0
0.4375 8.654e-11 0
0.4375 3.83979e-11 0
0.339844 4.01068e-11 0
0.339844 2.53329e-12 0
0.4375 3.83979e-11 0
0.4375 -1.28623e-11 0
0.234375 -2.23389e-11 0
0.234375 -4.35424e-11 0
0.339844 2.53329e-12 0
0.339844 -3.59813e-11 0
0.234375 -4.35424e-11 0
0.234375 -6.48324e-11 0
0.339844 -3.59813e-11 0
0.339844 -7.39132e-11 0
0.339844 2.53329e-12 0
0.339844 -3.59813e-11 0
0.4375 -1.28623e-11 0
0.4375 -6.55036e-11 0
0.339844 -3.59813e-11 0
0.339844 -7.39132e-11 0
0.4375 -6.55036e-11 0
0.4375 -1.17263e-10 0
0 0 0
0 0 0
0.121094 -2.55816e-11 0
0.121094 -3.40744e-11 0
0 0 0
0 0 0
0.121094 -3.40744e-11 0
0.121094 -4.16739e-11 0
0.121094 -2.55816e-11 0
0.121094 -3.40744e-11 0
0.234375 -6.48324e-11 0
0.234375 -8.50842e-11 0
0.121094 -3.40744e-11 0
0.121094 -4.16739e-11 0
0.234375 -8.50842e-11 0
0.234375 -1.03103e-10 0
0 0 0
0 0 0
0.121094 -4.16739e-11 0
0.121094 -4.80186e-11 0
0 0 0
0 0 0
0.121094 -4.80186e-11 0
0.121094 -5.2849e-11 0
0.121094 -4.16739e-11 0
0.121094 -4.80186e-11 0
0.234375 -1.03103e-10 0
0.234375 -1.179e-10 0
0.121094 -4.80186e-11 0
0.121094 -5.2849e-11 0
0.234375 -1.179e-10 0
0.234375 -1.2858e-10 0
0.234375 -6.48324e-11 0
0.234375 -8.50842e-11 0
0.339844 -7.39132e-11 0
0.339844 -1.09523e-10 0
0.234375 -8.50842e-11 0
0.234375 -1.03103e-10 0
0.339844 -1.09523e-10 0
0.339844 -1.41062e-10 0
0.339844 -7.39132e-11 0
0.339844 -1.09523e-10 0
0.4375 -1.17263e-10 0
0.4375 -1.65655e-10 0
0.339844 -1.09523e-10 0
0.339844 -1.41062e-10 0
0.4375 -1.65655e-10 0
0.4375 -2.08357e-10 0
0.234375 -1.03103e-10 0
0.234375 -1.179e-10 0
0.339844 -1.41062e-10 0
0.339844 -1.6699e-10 0
0.234375 -1.179e-10 0
0.234375 -1.2858e-10 0
0.339844 -1.6699e-10 0
0.339844 -1.8602e-10 0
0.339844 -1.41062e-10 0
0.339844 -1.6699e-10 0
0.4375 -2.08357e-10 0
0.4375 -2.43256e-10 0
0.339844 -1.6699e-10 0
0.339844 -1.8602e-10 0
0.4375 -2.43256e-10 0
0.4375 -2.68711e-10 0
0.4375 8.654e-11 0
0.4375 3.83979e-11 0
0.527344 7.87438e-11 0
0.527344 1.80775e-11 0
0.4375 3.83979e-11 0
0.4375 -1.28623e-11 0
0.527344 1.80775e-11 0
0.527344 -4.6925e-11 0
0.527344 7.87438e-11 0
0.527344 1.80775e-11 0
0.609375 5.80476e-11 0
0.609375 -1.39707e-11 0
0.527344 1.80775e-11 0
0.527344 -4.6925e-11 0
0.609375 -1.39707e-11 0
0.609375 -9.14513e-11 0
0.4375 -1.28623e-11 0
0.4375 -6.55036e-11 0
0.527344 -4.6925e-11 0
0.527344 -1.13592e-10 0
0.4375 -6.55036e-11 0
0.4375 -1.17263e-10 0
0.527344 -1.13592e-10 0
0.527344 -1.78833e-10 0
0.527344 -4.6925e-11 0
0.527344 -1.13592e-10 0
0.609375 -9.14513e-11 0
0.609375 -1.7074e-10 0
0.527344 -1.13592e-10 0
0.527344 -1.78833e-10 0
0.609375 -1.7074e-10 0
0.609375 -2.48004e-10 0
0.609375 5.80476e-11 0
0.609375 -1.39707e-11 0
0.683594 3.29713e-11 0
0.683594 -4.9267e-11 0
0.609375 -1.39707e-11 0
0.609375 -9.14513e-11 0
0.683594 -4.9267e-11 0
0.683594 -1.37666e-10 0
0.683594 3.29713e-11 0
0.683594 -4.9267e-11 0
0.75 9.11802e-12 0
0.75 -8.14045e-11 0
0.683594 -4.9267e-11 0
0.683594 -1.37666e-10 0
0.75 -8.14045e-11 0
0.75 -1.783e-10 0
0.609375 -9.14513e-11 0
0.609375 -1.7074e-10 0
0.683594 -1.37666e-10 0
0.683594 -2.2774e-10 0
0.609375 -1.7074e-10 0
0.609375 -2.48004e-10 0
0.683594 -2.2774e-10 0
0.683594 -3.15059e-10 0
0.683594 -1.37666e-10 0
0.683594 -2.2774e-10 0
0.75 -1.783e-10 0
0.75 -2.76479e-10 0
0.683594 -2.2774e-10 0
0.683594 -3.15059e-10 0
0.75 -2.76479e-10 0
0.75 -3.71111e-10 0
0.4375 -1.17263e-10 0
0.4375 -1.65655e-10 0
0.527344 -1.78833e-10 0
0.527344 -2.39538e-10 0
0.4375 -1.65655e-10 0
0.4375 -2.08357e-10 0
0.527344 -2.39538e-10 0
0.527344 -2.92803e-10 0
0.527344 -1.78833e-10 0
0.527344 -2.39538e-10 0
0.609375 -2.48004e-10 0
0.609375 -3.19547e-10 0
0.527344 -2.39538e-10 0
0.527344 -2.92803e-10 0
0.609375 -3.19547e-10 0
0.609375 -3.82018e-10 0
0.4375 -2.08357e-10 0
0.4375 -2.43256e-10 0
0.527344 -2.92803e-10 0
0.527344 -3.36123e-10 0
0.4375 -2.43256e-10 0
0.4375 -2.68711e-10 0
0.527344 -3.36123e-10 0
0.527344 -3.67472e-10 0
0.527344 -2.92803e-10 0
0.527344 -3.36123e-10 0
0.609375 -3.82018e-10 0
0.609375 -4.32563e-10 0
0.527344 -3.36123e-10 0
0.527344 -3.67472e-10 0
0.609375 -4.32563e-10 0
0.609375 -4.68912e-10 0
0.609375 -2.48004e-10 0
0.609375 -3.19547e-10 0
0.683594 -3.15059e-10 0
0.683594 -3.95487e-10 0
0.609375 -3.19547e-10 0
0.609375 -3.82018e-10 0
0.683594 -3.95487e-10 0
0.683594 -4.65364e-10 0
0.683594 -3.15059e-10 0
0.683594 -3.95487e-10 0
0.75 -3.71111e-10 0
0.75 -4.57807e-10 0
0.683594 -3.95487e-10 0
0.683594 -4.65364e-10 0
0.75 -4.57807e-10 0
0.75 -5.32757e-10 0
0.609375 -3.82018e-10 0
0.609375 -4.32563e-10 0
0.683594 -4.65364e-10 0
0.683594 -5.21617e-10 0
0.609375 -4.32563e-10 0
0.609375 -4.68912e-10 0
0.683594 -5.21617e-10 0
0.683594 -5.61834e-10 0
0.683594 -4.65364e-10 0
0.683594 -5.21617e-10 0
0.75 -5.32757e-10 0
0.75 -5.92807e-10 0
0.683594 -5.21617e-10 0
0.683594 -5.61834e-10 0
0.75 -5.92807e-10 0
0.75 -6.35513e-10 0
0.75 0 0
0.75 1.66243e-10 0
0.808594 0 0
0.808594 1.23145e-10 0
0.75 1.66243e-10 0
0.75 1.94213e-10 0
0.808594 1.23145e-10 0
0.808594 1.66979e-10 0
0.808594 0 0
0.808594 1.23145e-10 0
0.859375 0 0
0.859375 9.71242e-11 0
0.808594 1.23145e-10 0
0.808594 1.66979e-10 0
0.859375 9.71242e-11 0
0.859375 1.49497e-10 0
0.75 1.94213e-10 0
0.75 2.14798e-10 0
0.808594 1.66979e-10 0
0.808594 1.98206e-10 0
0.75 2.14798e-10 0
0.75 2.15519e-10 0
0.808594 1.98206e-10 0
0.808594 2.05313e-10 0
0.808594 1.66979e-10 0
0.808594 1.98206e-10 0
0.859375 1.49497e-10 0
0.859375 1.86125e-10 0
0.808594 1.98206e-10 0
0.808594 2.05313e-10 0
0.859375 1.86125e-10 0
0.859375 1.96175e-10 0
0.859375 0 0
0.859375 9.71242e-11 0
0.902344 0 0
0.902344 7.99383e-11 0
0.859375 9.71242e-11 0
0.859375 1.49497e-10 0
0.902344 7.99383e-11 0
0.902344 1.34922e-10 0
0.902344 0 0
0.902344 7.99383e-11 0
0.9375 0 0
0.9375 6.60001e-11 0
0.902344 7.99383e-11 0
0.902344 1.34922e-10 0
0.9375 6.60001e-11 0
0.9375 1.18136e-10 0
0.859375 1.49497e-10 0
0.859375 1.86125e-10 0
0.902344 1.34922e-10 0
0.902344 1.72744e-10 0
0.859375 1.86125e-10 0
0.859375 1.96175e-10 0
0.902344 1.72744e-10 0
0.902344 1.83579e-10 0
0.902344 1.34922e-10 0
0.902344 1.72744e-10 0
0.9375 1.18136e-10 0
0.9375 1.53554e-10 0
0.902344 1.72744e-10 0
0.902344 1.83579e-10 0
0.9375 1.53554e-10 0
0.9375 1.63753e-10 0
0.75 2.15519e-10 0
0.75 1.94412e-10 0
0.808594 2.05313e-10 0
0.808594 1.8599e-10 0
0.75 1.94412e-10 0
0.75 1.51222e-10 0
0.808594 1.8599e-10 0
0.808594 1.41164e-10 0
0.808594 2.05313e-10 0
0.808594 1.8599e-10 0
0.859375 1.96175e-10 0
0.859375 1.77504e-10 0
0.808594 1.8599e-10 0
0.808594 1.41164e-10 0
0.859375 1.77504e-10 0
0.859375 1.31863e-10 0
0.75 1.51222e-10 0
0.75 8.8212e-11 0
0.808594 1.41164e-10 0
0.808594 7.42986e-11 0
0.75 8.8212e-11 0
0.75 9.11802e-12 0
0.808594 7.42986e-11 0
0.808594 -9.78253e-12 0
0.808594 1.41164e-10 0
0.808594 7.42986e-11 0
0.859375 1.31863e-10 0
0.859375 6.35037e-11 0
0.808594 7.42986e-11 0
0.808594 -9.78253e-12 0
0.859375 6.35037e-11 0
0.859375 -2.21193e-11 0
0.859375 1.96175e-10 0
0.859375 1.77504e-10 0
0.902344 1.83579e-10 0
0.902344 1.65636e-10 0
0.859375 1.77504e-10 0
0.859375 1.31863e-10 0
0.902344 1.65636e-10 0
0.902344 1.21181e-10 0
0.902344 1.83579e-10 0
0.902344 1.65636e-10 0
0.9375 1.63753e-10 0
0.9375 1.47372e-10 0
0.902344 1.65636e-10 0
0.902344 1.21181e-10 0
0.9375 1.47372e-10 0
0.9375 1.06836e-10 0
0.859375 1.31863e-10 0
0.859375 6.35037e-11 0
0.902344 1.21181e-10 0
0.902344 5.48084e-11 0
0.859375 6.35037e-11 0
0.859375 -2.21193e-11 0
0.902344 5.48084e-11 0
0.902344 -2.7863e-11 0
0.902344 1.21181e-10 0
0.902344 5.48084e-11 0
0.9375 1.06836e-10 0
0.9375 4.66117e-11 0
0.902344 5.48084e-11 0
0.902344 -2.7863e-11 0
0.9375 4.66117e-11 0
0.9375 -2.80092e-11 0
0.9375 0 0
0.9375 6.60001e-11 0
0.964844 0 0
0.964844 5.19441e-11 0
0.9375 6.60001e-11 0
0.9375 1.18136e-10 0
0.964844 5.19441e-11 0
0.964844 9.62399e-11 0
0.964844 0 0
0.964844 5.19441e-11 0
0.984375 0 0
0.984375 3.62363e-11 0
0.964844 5.19441e-11 0
0.964844 9.62399e-11 0
0.984375 3.62363e-11 0
0.984375 6.84217e-11 0
0.9375 1.18136e-10 0
0.9375 1.53554e-10 0
0.964844 9.62399e-11 0
0.964844 1.26063e-10 0
0.9375 1.53554e-10 0
0.9375 1.63753e-10 0
0.964844 1.26063e-10 0
0.964844 1.34615e-10 0
0.964844 9.62399e-11 0
0.964844 1.26063e-10 0
0.984375 6.84217e-11 0
0.984375 8.9966e-11 0
0.964844 1.26063e-10 0
0.964844 1.34615e-10 0
0.984375 8.9966e-11 0
0.984375 9.61154e-11 0
0.984375 0 0
0.984375 3.62363e-11 0
0.996094 0 0
0.996094 1.86883e-11 0
0.984375 3.62363e-11 0
0.984375 6.84217e-11 0
0.996094 1.86883e-11 0
0.996094 3.56173e-11 0
0.996094 0 0
0.996094 1.86883e-11 0
1 0 0
1 -8.09378e-17 0
0.996094 1.86883e-11 0
0.996094 3.56173e-11 0
1 -8.09378e-17 0
1 -2.55485e-16 0
0.984375 6.84217e-11 0
0.984375 8.9966e-11 0
0.996094 3.56173e-11 0
0.996094 4.6913e-11 0
0.984375 8.9966e-11 0
0.984375 9.61154e-11 0
0.996094 4.6913e-11 0
0.996094 5.01281e-11 0
0.996094 3.56173e-11 0
0.996094 4.6913e-11 0
1 -2.55485e-16 0
1 1.61517e-17 0
0.996094 4.6913e-11 0
0.996094 5.01281e-11 0
1 1.61517e-17 0
1 -2.57197e-16 0
0.9375 1.63753e-10 0
0.9375 1.47372e-10 0
0.964844 1.34615e-10 0
0.964844 1.20945e-10 0
0.9375 1.47372e-10 0
0.9375 1.06836e-10 0
0.964844 1.20945e-10 0
0.964844 8.72738e-11 0
0.964844 1.34615e-10 0
0.964844 1.20945e-10 0
0.984375 9.61154e-11 0
0.984375 8.62766e-11 0
0.964844 1.20945e-10 0
0.964844 8.72738e-11 0
0.984375 8.62766e-11 0
0.984375 6.21391e-11 0
0.9375 1.06836e-10 0
0.9375 4.66117e-11 0
0.964844 8.72738e-11 0
0.964844 3.74657e-11 0
0.9375 4.66117e-11 0
0.9375 -2.80092e-11 0
0.964844 3.74657e-11 0
0.964844 -2.39949e-11 0
0.964844 8.72738e-11 0
0.964844 3.74657e-11 0
0.984375 6.21391e-11 0
0.984375 2.65432e-11 0
0.964844 3.74657e-11 0
0.964844 -2.39949e-11 0
0.984375 2.65432e-11 0
0.984375 -1.72537e-11 0
0.984375 9.61154e-11 0
0.984375 8.62766e-11 0
0.996094 5.01281e-11 0
0.996094 4.49787e-11 0
0.984375 8.62766e-11 0
0.984375 6.21391e-11 0
0.996094 4.49787e-11 0
0.996094 3.2376e-11 0
0.996094 5.01281e-11 0
0.996094 4.49787e-11 0
1 -2.57197e-16 0
1 2.891e-16 0
0.996094 4.49787e-11 0
0.996094 3.2376e-11 0
1 2.891e-16 0
1 -4.48717e-17 0
0.984375 6.21391e-11 0
0.984375 2.65432e-11 0
0.996094 3.2376e-11 0
0.996094 1.38236e-11 0
0.984375 2.65432e-11 0
0.984375 -1.72537e-11 0
0.996094 1.38236e-11 0
0.996094 -8.96404e-12 0
0.996094 3.2376e-11 0
0.996094 1.38236e-11 0
1 -4.48717e-17 0
1 8.24629e-17 0
0.996094 1.38236e-11 0
0.996094 -8.96404e-12 0
1 8.24629e-17 0
1 -1.36235e-16 0
0.75 9.11802e-12 0
0.75 -8.14045e-11 0
0.808594 -9.78253e-12 0
0.808594 -1.05613e-10 0
0.75 -8.14045e-11 0
0.75 -1.783e-10 0
0.808594 -1.05613e-10 0
0.808594 -2.07579e-10 0
0.808594 -9.78253e-12 0
0.808594 -1.05613e-10 0
0.859375 -2.21193e-11 0
0.859375 -1.19126e-10 0
0.808594 -1.05613e-10 0
0.808594 -2.07579e-10 0
0.859375 -1.19126e-10 0
0.859375 -2.21696e-10 0
0.75 -1.783e-10 0
0.75 -2.76479e-10 0
0.808594 -2.07579e-10 0
0.808594 -3.10262e-10 0
0.75 -2.76479e-10 0
0.75 -3.71111e-10 0
0.808594 -3.10262e-10 0
0.808594 -4.08661e-10 0
0.808594 -2.07579e-10 0
0.808594 -3.10262e-10 0
0.859375 -2.21696e-10 0
0.859375 -3.24373e-10 0
0.808594 -3.10262e-10 0
0.808594 -4.08661e-10 0
0.859375 -3.24373e-10 0
0.859375 -4.22234e-10 0
0.859375 -2.21193e-11 0
0.859375 -1.19126e-10 0
0.902344 -2.7863e-11 0
0.902344 -1.20967e-10 0
0.859375 -1.19126e-10 0
0.859375 -2.21696e-10 0
0.902344 -1.20967e-10 0
0.902344 -2.18847e-10 0
0.902344 -2.7863e-11 0
0.902344 -1.20967e-10 0
0.9375 -2.80092e-11 0
0.9375 -1.1162e-10 0
0.902344 -1.20967e-10 0
0.902344 -2.18847e-10 0
0.9375 -1.1162e-10 0
0.9375 -1.99101e-10 0
0.859375 -2.21696e-10 0
0.859375 -3.24373e-10 0
0.902344 -2.18847e-10 0
0.902344 -3.16312e-10 0
0.859375 -3.24373e-10 0
0.859375 -4.22234e-10 0
0.902344 -3.16312e-10 0
0.902344 -4.08766e-10 0
0.902344 -2.18847e-10 0
0.902344 -3.16312e-10 0
0.9375 -1.99101e-10 0
0.9375 -2.85832e-10 0
0.902344 -3.16312e-10 0
0.902344 -4.08766e-10 0
0.9375 -2.85832e-10 0
0.9375 -3.67784e-10 0
0.75 -3.71111e-10 0
0.75 -4.57807e-10 0
0.808594 -4.08661e-10 0
0.808594 -4.98339e-10 0
0.75 -4.57807e-10 0
0.75 -5.32757e-10 0
0.808594 -4.98339e-10 0
0.808594 -5.75503e-10 0
0.808594 -4.08661e-10 0
0.808594 -4.98339e-10 0
0.859375 -4.22234e-10 0
0.859375 -5.10993e-10 0
0.808594 -4.98339e-10 0
0.808594 -5.75503e-10 0
0.859375 -5.10993e-10 0
0.859375 -5.87043e-10 0
0.75 -5.32757e-10 0
0.75 -5.92807e-10 0
0.808594 -5.75503e-10 0
0.808594 -6.37059e-10 0
0.75 -5.92807e-10 0
0.75 -6.35513e-10 0
0.808594 -6.37059e-10 0
0.808594 -6.80636e-10 0
0.808594 -5.75503e-10 0
0.808594 -6.37059e-10 0
0.859375 -5.87043e-10 0
0.859375 -6.4748e-10 0
0.808594 -6.37059e-10 0
0.808594 -6.80636e-10 0
0.859375 -6.4748e-10 0
0.859375 -6.90105e-10 0
0.859375 -4.22234e-10 0
0.859375 -5.10993e-10 0
0.902344 -4.08766e-10 0
0.902344 -4.9227e-10 0
0.859375 -5.10993e-10 0
0.859375 -5.87043e-10 0
0.902344 -4.9227e-10 0
0.902344 -5.63557e-10 0
0.902344 -4.08766e-10 0
0.902344 -4.9227e-10 0
0.9375 -3.67784e-10 0
0.9375 -4.41548e-10 0
0.902344 -4.9227e-10 0
0.902344 -5.63557e-10 0
0.9375 -4.41548e-10 0
0.9375 -5.04334e-10 0
0.859375 -5.87043e-10 0
0.859375 -6.4748e-10 0
0.902344 -5.63557e-10 0
0.902344 -6.20029e-10 0
0.859375 -6.4748e-10 0
0.859375 -6.90105e-10 0
0.902344 -6.20029e-10 0
0.902344 -6.59741e-10 0
0.902344 -5.63557e-10 0
0.902344 -6.20029e-10 0
0.9375 -5.04334e-10 0
0.9375 -5.53943e-10 0
0.902344 -6.20029e-10 0
0.902344 -6.59741e-10 0
0.9375 -5.53943e-10 0
0.9375 -5.88753e-10 0
0.9375 -2.80092e-11 0
0.9375 -1.1162e-10 0
0.964844 -2.39949e-11 0
0.964844 -9.25897e-11 0
0.9375 -1.1162e-10 0
0.9375 -1.99101e-10 0
0.964844 -9.25897e-11 0
0.964844 -1.64099e-10 0
0.964844 -2.39949e-11 0
0.964844 -9.25897e-11 0
0.984375 -1.72537e-11 0
0.984375 -6.60018e-11 0
0.964844 -9.25897e-11 0
0.964844 -1.64099e-10 0
0.984375 -6.60018e-11 0
0.984375 -1.16692e-10 0
0.9375 -1.99101e-10 0
0.9375 -2.85832e-10 0
0.964844 -1.64099e-10 0
0.964844 -2.34758e-10 0
0.9375 -2.85832e-10 0
0.9375 -3.67784e-10 0
0.964844 -2.34758e-10 0