# vtk DataFile Version 3.0
#This file was generated by the deal.II library on 2026/3/25 at 11:21:37
ASCII
DATASET UNSTRUCTURED_GRID

POINTS 8020 double
0 0 0
0.03125 0 0
0 0.03125 0
0.03125 0.03125 0
0 0.03125 0
0.03125 0.03125 0
0 0.0625 0
0.03125 0.0625 0
0 0.0625 0
0.03125 0.0625 0
0 0.09375 0
0.03125 0.09375 0
0 0.09375 0
0.03125 0.09375 0
0 0.125 0
0.03125 0.125 0
0 0.125 0
0.03125 0.125 0
0 0.15625 0
0.03125 0.15625 0
0 0.15625 0
0.03125 0.15625 0
0 0.1875 0
0.03125 0.1875 0
0 0.1875 0
0.03125 0.1875 0
0 0.21875 0
0.03125 0.21875 0
0 0.21875 0
0.03125 0.21875 0
0 0.25 0
0.03125 0.25 0
0 0.25 0
0.03125 0.25 0
0 0.28125 0
0.03125 0.28125 0
0 0.28125 0
0.03125 0.28125 0
0 0.3125 0
0.03125 0.3125 0
0.03125 0 0
0.0625 0 0
0.03125 0.03125 0
0.0625 0.03125 0
0.03125 0.03125 0
0.0625 0.03125 0
0.03125 0.0625 0
0.0625 0.0625 0
0.03125 0.0625 0
0.0625 0.0625 0
0.03125 0.09375 0
0.0625 0.09375 0
0.03125 0.09375 0
0.0625 0.09375 0
0.03125 0.125 0
0.0625 0.125 0
0.03125 0.125 0
0.0625 0.125 0
0.03125 0.15625 0
0.0625 0.15625 0
0.03125 0.15625 0
0.0625 0.15625 0
0.03125 0.1875 0
0.0625 0.1875 0
0.03125 0.1875 0
0.0625 0.1875 0
0.03125 0.21875 0
0.0625 0.21875 0
0.03125 0.21875 0
0.0625 0.21875 0
0.03125 0.25 0
0.0625 0.25 0
0.03125 0.25 0
0.0625 0.25 0
0.03125 0.28125 0
0.0625 0.28125 0
0.03125 0.28125 0
0.0625 0.28125 0
0.03125 0.3125 0
0.0625 0.3125 0
0.0625 0 0
0.09375 0 0
0.0625 0.03125 0
0.09375 0.03125 0
0.0625 0.03125 0
0.09375 0.03125 0
0.0625 0.0625 0
0.09375 0.0625 0
0.0625 0.0625 0
0.09375 0.0625 0
0.0625 0.09375 0
0.09375 0.09375 0
0.0625 0.09375 0
0.09375 0.09375 0
0.0625 0.125 0
0.09375 0.125 0
0.0625 0.125 0
0.09375 0.125 0
0.0625 0.15625 0
0.09375 0.15625 0
0.0625 0.15625 0
0.09375 0.15625 0
0.0625 0.1875 0
0.09375 0.1875 0
0.0625 0.1875 0
0.09375 0.1875 0
0.0625 0.21875 0
0.09375 0.21875 0
0.0625 0.21875 0
0.09375 0.21875 0
0.0625 0.25 0
0.09375 0.25 0
0.0625 0.25 0
0.09375 0.25 0
0.0625 0.28125 0
0.09375 0.28125 0
0.0625 0.28125 0
0.09375 0.28125 0
0.0625 0.3125 0
0.09375 0.3125 0
0.0625 0.625 0
0.09375 0.625 0
0.0625 0.65625 0
0.09375 0.65625 0
0.0625 0.65625 0
0.09375 0.65625 0
0.0625 0.6875 0
0.09375 0.6875 0
0.0625 0.6875 0
0.09375 0.6875 0
0.0625 0.71875 0
0.09375 0.71875 0
0.0625 0.71875 0
0.09375 0.71875 0
0.0625 0.75 0
0.09375 0.75 0
0.0625 0.75 0
0.09375 0.75 0
0.0625 0.78125 0
0.09375 0.78125 0
0.0625 0.78125 0
0.09375 0.78125 0
0.0625 0.8125 0
0.09375 0.8125 0
0.0625 0.8125 0
0.09375 0.8125 0
0.0625 0.84375 0
0.09375 0.84375 0
0.0625 0.84375 0
0.09375 0.84375 0
0.0625 0.875 0
0.09375 0.875 0
0.09375 0 0
0.125 0 0
0.09375 0.03125 0
0.125 0.03125 0
0.09375 0.03125 0
0.125 0.03125 0
0.09375 0.0625 0
0.125 0.0625 0
0.09375 0.0625 0
0.125 0.0625 0
0.09375 0.09375 0
0.125 0.09375 0
0.09375 0.09375 0
0.125 0.09375 0
0.09375 0.125 0
0.125 0.125 0
0.09375 0.125 0
0.125 0.125 0
0.09375 0.15625 0
0.125 0.15625 0
0.09375 0.15625 0
0.125 0.15625 0
0.09375 0.1875 0
0.125 0.1875 0
0.09375 0.1875 0
0.125 0.1875 0
0.09375 0.21875 0
0.125 0.21875 0
0.09375 0.21875 0
0.125 0.21875 0
0.09375 0.25 0
0.125 0.25 0
0.09375 0.25 0
0.125 0.25 0
0.09375 0.28125 0
0.125 0.28125 0
0.09375 0.28125 0
0.125 0.28125 0
0.09375 0.3125 0
0.125 0.3125 0
0.09375 0.46875 0
0.125 0.46875 0
0.09375 0.5 0
0.125 0.5 0
0.09375 0.5 0
0.125 0.5 0
0.09375 0.53125 0
0.125 0.53125 0
0.09375 0.53125 0
0.125 0.53125 0
0.09375 0.5625 0
0.125 0.5625 0
0.09375 0.5625 0
0.125 0.5625 0
0.09375 0.59375 0
0.125 0.59375 0
0.09375 0.59375 0
0.125 0.59375 0
0.09375 0.625 0
0.125 0.625 0
0.09375 0.625 0
0.125 0.625 0
0.09375 0.65625 0
0.125 0.65625 0
0.09375 0.65625 0
0.125 0.65625 0
0.09375 0.6875 0
0.125 0.6875 0
0.09375 0.6875 0
0.125 0.6875 0
0.09375 0.71875 0
0.125 0.71875 0
0.09375 0.71875 0
0.125 0.71875 0
0.09375 0.75 0
0.125 0.75 0
0.09375 0.75 0
0.125 0.75 0
0.09375 0.78125 0
0.125 0.78125 0
0.09375 0.78125 0
0.125 0.78125 0
0.09375 0.8125 0
0.125 0.8125 0
0.09375 0.8125 0
0.125 0.8125 0
0.09375 0.84375 0
0.125 0.84375 0
0.09375 0.84375 0
0.125 0.84375 0
0.09375 0.875 0
0.125 0.875 0
0.125 0 0
0.15625 0 0
0.125 0.03125 0
0.15625 0.03125 0
0.125 0.03125 0
0.15625 0.03125 0
0.125 0.0625 0
0.15625 0.0625 0
0.125 0.0625 0
0.15625 0.0625 0
0.125 0.09375 0
0.15625 0.09375 0
0.125 0.09375 0
0.15625 0.09375 0
0.125 0.125 0
0.15625 0.125 0
0.125 0.125 0
0.15625 0.125 0
0.125 0.15625 0
0.15625 0.15625 0
0.125 0.15625 0
0.15625 0.15625 0
0.125 0.1875 0
0.15625 0.1875 0
0.125 0.1875 0
0.15625 0.1875 0
0.125 0.21875 0
0.15625 0.21875 0
0.125 0.28125 0
0.15625 0.28125 0
0.125 0.3125 0
0.15625 0.3125 0
0.125 0.3125 0
0.15625 0.3125 0
0.125 0.34375 0
0.15625 0.34375 0
0.125 0.34375 0
0.15625 0.34375 0
0.125 0.375 0
0.15625 0.375 0
0.125 0.375 0
0.15625 0.375 0
0.125 0.40625 0
0.15625 0.40625 0
0.125 0.40625 0
0.15625 0.40625 0
0.125 0.4375 0
0.15625 0.4375 0
0.125 0.4375 0
0.15625 0.4375 0
0.125 0.46875 0
0.15625 0.46875 0
0.125 0.46875 0
0.15625 0.46875 0
0.125 0.5 0
0.15625 0.5 0
0.125 0.5 0
0.15625 0.5 0
0.125 0.53125 0
0.15625 0.53125 0
0.125 0.53125 0
0.15625 0.53125 0
0.125 0.5625 0
0.15625 0.5625 0
0.125 0.5625 0
0.15625 0.5625 0
0.125 0.59375 0
0.15625 0.59375 0
0.125 0.59375 0
0.15625 0.59375 0
0.125 0.625 0
0.15625 0.625 0
0.125 0.625 0
0.15625 0.625 0
0.125 0.65625 0
0.15625 0.65625 0
0.125 0.65625 0
0.15625 0.65625 0
0.125 0.6875 0
0.15625 0.6875 0
0.125 0.6875 0
0.15625 0.6875 0
0.125 0.71875 0
0.15625 0.71875 0
0.125 0.71875 0
0.15625 0.71875 0
0.125 0.75 0
0.15625 0.75 0
0.125 0.75 0
0.15625 0.75 0
0.125 0.78125 0
0.15625 0.78125 0
0.125 0.78125 0
0.15625 0.78125 0
0.125 0.8125 0
0.15625 0.8125 0
0.125 0.8125 0
0.15625 0.8125 0
0.125 0.84375 0
0.15625 0.84375 0
0.125 0.84375 0
0.15625 0.84375 0
0.125 0.875 0
0.15625 0.875 0
0.125 0.875 0
0.15625 0.875 0
0.125 0.90625 0
0.15625 0.90625 0
0.15625 0 0
0.1875 0 0
0.15625 0.03125 0
0.1875 0.03125 0
0.15625 0.03125 0
0.1875 0.03125 0
0.15625 0.0625 0
0.1875 0.0625 0
0.15625 0.0625 0
0.1875 0.0625 0
0.15625 0.09375 0
0.1875 0.09375 0
0.15625 0.09375 0
0.1875 0.09375 0
0.15625 0.125 0
0.1875 0.125 0
0.15625 0.125 0
0.1875 0.125 0
0.15625 0.15625 0
0.1875 0.15625 0
0.15625 0.25 0
0.1875 0.25 0
0.15625 0.28125 0
0.1875 0.28125 0
0.15625 0.28125 0
0.1875 0.28125 0
0.15625 0.3125 0
0.1875 0.3125 0
0.15625 0.3125 0
0.1875 0.3125 0
0.15625 0.34375 0
0.1875 0.34375 0
0.15625 0.34375 0
0.1875 0.34375 0
0.15625 0.375 0
0.1875 0.375 0
0.15625 0.375 0
0.1875 0.375 0
0.15625 0.40625 0
0.1875 0.40625 0
0.15625 0.40625 0
0.1875 0.40625 0
0.15625 0.4375 0
0.1875 0.4375 0
0.15625 0.4375 0
0.1875 0.4375 0
0.15625 0.46875 0
0.1875 0.46875 0
0.15625 0.46875 0
0.1875 0.46875 0
0.15625 0.5 0
0.1875 0.5 0
0.15625 0.5 0
0.1875 0.5 0
0.15625 0.53125 0
0.1875 0.53125 0
0.15625 0.53125 0
0.1875 0.53125 0
0.15625 0.5625 0
0.1875 0.5625 0
0.15625 0.5625 0
0.1875 0.5625 0
0.15625 0.59375 0
0.1875 0.59375 0
0.15625 0.59375 0
0.1875 0.59375 0
0.15625 0.625 0
0.1875 0.625 0
0.15625 0.625 0
0.1875 0.625 0
0.15625 0.65625 0
0.1875 0.65625 0
0.15625 0.65625 0
0.1875 0.65625 0
0.15625 0.6875 0
0.1875 0.6875 0
0.15625 0.6875 0
0.1875 0.6875 0
0.15625 0.71875 0
0.1875 0.71875 0
0.15625 0.71875 0
0.1875 0.71875 0
0.15625 0.75 0
0.1875 0.75 0
0.15625 0.75 0
0.1875 0.75 0
0.15625 0.78125 0
0.1875 0.78125 0
0.15625 0.78125 0
0.1875 0.78125 0
0.15625 0.8125 0
0.1875 0.8125 0
0.15625 0.8125 0
0.1875 0.8125 0
0.15625 0.84375 0
0.1875 0.84375 0
0.15625 0.84375 0
0.1875 0.84375 0
0.15625 0.875 0
0.1875 0.875 0
0.15625 0.875 0
0.1875 0.875 0
0.15625 0.90625 0
0.1875 0.90625 0
0.1875 0.1875 0
0.21875 0.1875 0
0.1875 0.21875 0
0.21875 0.21875 0
0.1875 0.21875 0
0.21875 0.21875 0
0.1875 0.25 0
0.21875 0.25 0
0.1875 0.25 0
0.21875 0.25 0
0.1875 0.28125 0
0.21875 0.28125 0
0.1875 0.28125 0
0.21875 0.28125 0
0.1875 0.3125 0
0.21875 0.3125 0
0.1875 0.3125 0
0.21875 0.3125 0
0.1875 0.34375 0
0.21875 0.34375 0
0.1875 0.34375 0
0.21875 0.34375 0
0.1875 0.375 0
0.21875 0.375 0
0.1875 0.375 0
0.21875 0.375 0
0.1875 0.40625 0
0.21875 0.40625 0
0.1875 0.40625 0
0.21875 0.40625 0
0.1875 0.4375 0
0.21875 0.4375 0
0.1875 0.4375 0
0.21875 0.4375 0
0.1875 0.46875 0
0.21875 0.46875 0
0.1875 0.46875 0
0.21875 0.46875 0
0.1875 0.5 0
0.21875 0.5 0
0.1875 0.5 0
0.21875 0.5 0
0.1875 0.53125 0
0.21875 0.53125 0
0.1875 0.53125 0
0.21875 0.53125 0
0.1875 0.5625 0
0.21875 0.5625 0
0.1875 0.5625 0
0.21875 0.5625 0
0.1875 0.59375 0
0.21875 0.59375 0
0.1875 0.59375 0
0.21875 0.59375 0
0.1875 0.625 0
0.21875 0.625 0
0.1875 0.625 0
0.21875 0.625 0
0.1875 0.65625 0
0.21875 0.65625 0
0.1875 0.65625 0
0.21875 0.65625 0
0.1875 0.6875 0
0.21875 0.6875 0
0.1875 0.6875 0
0.21875 0.6875 0
0.1875 0.71875 0
0.21875 0.71875 0
0.1875 0.71875 0
0.21875 0.71875 0
0.1875 0.75 0
0.21875 0.75 0
0.1875 0.75 0
0.21875 0.75 0
0.1875 0.78125 0
0.21875 0.78125 0
0.1875 0.78125 0
0.21875 0.78125 0
0.1875 0.8125 0
0.21875 0.8125 0
0.1875 0.8125 0
0.21875 0.8125 0
0.1875 0.84375 0
0.21875 0.84375 0
0.1875 0.84375 0
0.21875 0.84375 0
0.1875 0.875 0
0.21875 0.875 0
0.1875 0.875 0
0.21875 0.875 0
0.1875 0.90625 0
0.21875 0.90625 0
0.21875 0.15625 0
0.25 0.15625 0
0.21875 0.1875 0
0.25 0.1875 0
0.21875 0.1875 0
0.25 0.1875 0
0.21875 0.21875 0
0.25 0.21875 0
0.21875 0.21875 0
0.25 0.21875 0
0.21875 0.25 0
0.25 0.25 0
0.21875 0.25 0
0.25 0.25 0
0.21875 0.28125 0
0.25 0.28125 0
0.21875 0.28125 0
0.25 0.28125 0
0.21875 0.3125 0
0.25 0.3125 0
0.21875 0.3125 0
0.25 0.3125 0
0.21875 0.34375 0
0.25 0.34375 0
0.21875 0.34375 0
0.25 0.34375 0
0.21875 0.375 0
0.25 0.375 0
0.21875 0.375 0
0.25 0.375 0
0.21875 0.40625 0
0.25 0.40625 0
0.21875 0.40625 0
0.25 0.40625 0
0.21875 0.4375 0
0.25 0.4375 0
0.21875 0.4375 0
0.25 0.4375 0
0.21875 0.46875 0
0.25 0.46875 0
0.21875 0.46875 0
0.25 0.46875 0
0.21875 0.5 0
0.25 0.5 0
0.21875 0.5 0
0.25 0.5 0
0.21875 0.53125 0
0.25 0.53125 0
0.21875 0.53125 0
0.25 0.53125 0
0.21875 0.5625 0
0.25 0.5625 0
0.21875 0.5625 0
0.25 0.5625 0
0.21875 0.59375 0
0.25 0.59375 0
0.21875 0.59375 0
0.25 0.59375 0
0.21875 0.625 0
0.25 0.625 0
0.21875 0.625 0
0.25 0.625 0
0.21875 0.65625 0
[...]
POINT_DATA 8020
VECTORS velocity double
0 0 0
-0.00206512 -0.00349075 0
0 0 0
-0.00230107 0.000403988 0
0 0 0
-0.00230107 0.000403988 0
0 0 0
-0.00234689 0.00421759 0
0 0 0
-0.00234689 0.00421759 0
0 0 0
-0.00303954 0.00880151 0
0 0 0
-0.00303954 0.00880151 0
0 0 0
-0.00273643 0.0135792 0
0 0 0
-0.00273643 0.0135792 0
0 0 0
-0.00456759 0.0200353 0
0 0 0
-0.00456759 0.0200353 0
0 0 0
-0.00488412 0.0285266 0
0 0 0
-0.00488412 0.0285266 0
0 0 0
-0.00679407 0.0394743 0
0 0 0
-0.00679407 0.0394743 0
0 0 0
-0.00926031 0.0547436 0
0 0 0
-0.00926031 0.0547436 0
0 0 0
-0.0121606 0.0755723 0
0 0 0
-0.0121606 0.0755723 0
0 0 0
-0.0147623 0.102089 0
-0.00206512 -0.00349075 0
-0.00623399 -0.000953614 0
-0.00230107 0.000403988 0
-0.00648819 0.00376406 0
-0.00230107 0.000403988 0
-0.00648819 0.00376406 0
-0.00234689 0.00421759 0
-0.00660082 0.00873532 0
-0.00234689 0.00421759 0
-0.00660082 0.00873532 0
-0.00303954 0.00880151 0
-0.00857297 0.0143565 0
-0.00303954 0.00880151 0
-0.00857297 0.0143565 0
-0.00273643 0.0135792 0
-0.00795375 0.020462 0
-0.00273643 0.0135792 0
-0.00795375 0.020462 0
-0.00456759 0.0200353 0
-0.0137218 0.0288225 0
-0.00456759 0.0200353 0
-0.0137218 0.0288225 0
-0.00488412 0.0285266 0
-0.0146811 0.0394953 0
-0.00488412 0.0285266 0
-0.0146811 0.0394953 0
-0.00679407 0.0394743 0
-0.0256074 0.0577474 0
-0.00679407 0.0394743 0
-0.0256074 0.0577474 0
-0.00926031 0.0547436 0
-0.0352915 0.0876799 0
-0.00926031 0.0547436 0
-0.0352915 0.0876799 0
-0.0121606 0.0755723 0
-0.0453701 0.126494 0
-0.0121606 0.0755723 0
-0.0453701 0.126494 0
-0.0147623 0.102089 0
-0.0496553 0.168368 0
-0.00623399 -0.000953614 0
-0.010847 0.00298904 0
-0.00648819 0.00376406 0
-0.0114594 0.00795057 0
-0.00648819 0.00376406 0
-0.0114594 0.00795057 0
-0.00660082 0.00873532 0
-0.0120577 0.0134255 0
-0.00660082 0.00873532 0
-0.0120577 0.0134255 0
-0.00857297 0.0143565 0
-0.0141105 0.0189087 0
-0.00857297 0.0143565 0
-0.0141105 0.0189087 0
-0.00795375 0.020462 0
-0.0166886 0.0268727 0
-0.00795375 0.020462 0
-0.0166886 0.0268727 0
-0.0137218 0.0288225 0
-0.0250206 0.0386571 0
-0.0137218 0.0288225 0
-0.0250206 0.0386571 0
-0.0146811 0.0394953 0
-0.0395038 0.0638846 0
-0.0146811 0.0394953 0
-0.0395038 0.0638846 0
-0.0256074 0.0577474 0
-0.0651152 0.110083 0
-0.0256074 0.0577474 0
-0.0651152 0.110083 0
-0.0352915 0.0876799 0
-0.0829236 0.166981 0
-0.0352915 0.0876799 0
-0.0829236 0.166981 0
-0.0453701 0.126494 0
-0.093607 0.223831 0
-0.0453701 0.126494 0
-0.093607 0.223831 0
-0.0496553 0.168368 0
-0.0895414 0.269842 0
0.0514435 0.228419 0
0.075904 0.306448 0
0.0544201 0.195893 0
0.0865265 0.282514 0
0.0544201 0.195893 0
0.0865265 0.282514 0
0.0514596 0.15616 0
0.0916174 0.250043 0
0.0514596 0.15616 0
0.0916174 0.250043 0
0.0423379 0.110682 0
0.0892215 0.208547 0
0.0423379 0.110682 0
0.0892215 0.208547 0
0.0292118 0.0652096 0
0.0775486 0.158872 0
0.0292118 0.0652096 0
0.0775486 0.158872 0
0.0169802 0.0291586 0
0.0583043 0.105295 0
0.0169802 0.0291586 0
0.0583043 0.105295 0
0.00787483 0.00816545 0
0.0362401 0.0566025 0
0.00787483 0.00816545 0
0.0362401 0.0566025 0
0.00911367 -0.00121758 0
0.0215656 0.0251349 0
0.00911367 -0.00121758 0
0.0215656 0.0251349 0
0.0112711 -0.00399408 0
0.0133583 0.0133322 0
-0.010847 0.00298904 0
-0.0160185 0.00749329 0
-0.0114594 0.00795057 0
-0.0165426 0.012511 0
-0.0114594 0.00795057 0
-0.0165426 0.012511 0
-0.0120577 0.0134255 0
-0.0183863 0.0180441 0
-0.0120577 0.0134255 0
-0.0183863 0.0180441 0
-0.0141105 0.0189087 0
-0.0206283 0.0250831 0
-0.0141105 0.0189087 0
-0.0206283 0.0250831 0
-0.0166886 0.0268727 0
-0.0308671 0.0371483 0
-0.0166886 0.0268727 0
-0.0308671 0.0371483 0
-0.0250206 0.0386571 0
-0.0539402 0.068099 0
-0.0250206 0.0386571 0
-0.0539402 0.068099 0
-0.0395038 0.0638846 0
-0.0959395 0.127387 0
-0.0395038 0.0638846 0
-0.0959395 0.127387 0
-0.0651152 0.110083 0
-0.124674 0.196754 0
-0.0651152 0.110083 0
-0.124674 0.196754 0
-0.0829236 0.166981 0
-0.139924 0.255591 0
-0.0829236 0.166981 0
-0.139924 0.255591 0
-0.093607 0.223831 0
-0.129941 0.291798 0
-0.093607 0.223831 0
-0.129941 0.291798 0
-0.0895414 0.269842 0
-0.112309 0.30468 0
-0.00711472 0.336682 0
-0.00917422 0.315018 0
0.0107566 0.337479 0
0.0102819 0.316843 0
0.0107566 0.337479 0
0.0102819 0.316843 0
0.0287931 0.33585 0
0.0293182 0.318472 0
0.0287931 0.33585 0
0.0293182 0.318472 0
0.0456642 0.330969 0
0.0489287 0.31974 0
0.0456642 0.330969 0
0.0489287 0.31974 0
0.0622843 0.321724 0
0.0681343 0.320041 0
0.0622843 0.321724 0
0.0681343 0.320041 0
0.075904 0.306448 0
0.087446 0.318313 0
0.075904 0.306448 0
0.087446 0.318313 0
0.0865265 0.282514 0
0.105102 0.312575 0
0.0865265 0.282514 0
0.105102 0.312575 0
0.0916174 0.250043 0
0.119222 0.299414 0
0.0916174 0.250043 0
0.119222 0.299414 0
0.0892215 0.208547 0
0.127146 0.275905 0
0.0892215 0.208547 0
0.127146 0.275905 0
0.0775486 0.158872 0
0.12563 0.240038 0
0.0775486 0.158872 0
0.12563 0.240038 0
0.0583043 0.105295 0
0.11199 0.192171 0
0.0583043 0.105295 0
0.11199 0.192171 0
0.0362401 0.0566025 0
0.0871635 0.136453 0
0.0362401 0.0566025 0
0.0871635 0.136453 0
0.0215656 0.0251349 0
0.0556752 0.0829308 0
0.0215656 0.0251349 0
0.0556752 0.0829308 0
0.0133583 0.0133322 0
0.0286246 0.0453529 0
-0.0160185 0.00749329 0
-0.0214996 0.0118247 0
-0.0165426 0.012511 0
-0.0215291 0.0170161 0
-0.0165426 0.012511 0
-0.0215291 0.0170161 0
-0.0183863 0.0180441 0
-0.0258449 0.0235715 0
-0.0183863 0.0180441 0
-0.0258449 0.0235715 0
-0.0206283 0.0250831 0
-0.0309609 0.0340447 0
-0.0206283 0.0250831 0
-0.0309609 0.0340447 0
-0.0308671 0.0371483 0
-0.0642618 0.0651038 0
-0.0308671 0.0371483 0
-0.0642618 0.0651038 0
-0.0539402 0.068099 0
-0.118746 0.131899 0
-0.0539402 0.068099 0
-0.118746 0.131899 0
-0.0959395 0.127387 0
-0.167403 0.208368 0
-0.0959395 0.127387 0
-0.167403 0.208368 0
-0.124674 0.196754 0
-0.177432 0.263113 0
-0.129941 0.291798 0
-0.138813 0.276183 0
-0.112309 0.30468 0
-0.115211 0.275196 0
-0.112309 0.30468 0
-0.115211 0.275196 0
-0.0912805 0.308522 0
-0.0925266 0.275349 0
-0.0912805 0.308522 0
-0.0925266 0.275349 0
-0.069522 0.309838 0
-0.0713809 0.27692 0
-0.069522 0.309838 0
-0.0713809 0.27692 0
-0.0488351 0.311138 0
-0.0506863 0.279118 0
-0.0488351 0.311138 0
-0.0506863 0.279118 0
-0.0284971 0.312815 0
-0.0309207 0.281429 0
-0.0284971 0.312815 0
-0.0309207 0.281429 0
-0.00917422 0.315018 0
-0.0111536 0.283399 0
-0.00917422 0.315018 0
-0.0111536 0.283399 0
0.0102819 0.316843 0
0.00837737 0.285144 0
0.0102819 0.316843 0
0.00837737 0.285144 0
0.0293182 0.318472 0
0.0277939 0.286608 0
0.0293182 0.318472 0
0.0277939 0.286608 0
0.0489287 0.31974 0
0.0475074 0.287946 0
0.0489287 0.31974 0
0.0475074 0.287946 0
0.0681343 0.320041 0
0.0673733 0.289465 0
0.0681343 0.320041 0
0.0673733 0.289465 0
0.087446 0.318313 0
0.0878409 0.291278 0
0.087446 0.318313 0
0.0878409 0.291278 0
0.105102 0.312575 0
0.108442 0.293058 0
0.105102 0.312575 0
0.108442 0.293058 0
0.119222 0.299414 0
0.128651 0.293392 0
0.119222 0.299414 0
0.128651 0.293392 0
0.127146 0.275905 0
0.145842 0.28889 0
0.127146 0.275905 0
0.145842 0.28889 0
0.12563 0.240038 0
0.156973 0.274994 0
0.12563 0.240038 0
0.156973 0.274994 0
0.11199 0.192171 0
0.156352 0.247481 0
0.11199 0.192171 0
0.156352 0.247481 0
0.0871635 0.136453 0
0.141006 0.205268 0
0.0871635 0.136453 0
0.141006 0.205268 0
0.0556752 0.0829308 0
0.108774 0.152005 0
0.0556752 0.0829308 0
0.108774 0.152005 0
0.0286246 0.0453529 0
0.0663206 0.0987832 0
0.0286246 0.0453529 0
0.0663206 0.0987832 0
-0.000384739 0.0266821 0
0.0217365 0.0576302 0
-0.0214996 0.0118247 0
-0.0271503 0.0155684 0
-0.0215291 0.0170161 0
-0.0271828 0.0216268 0
-0.0215291 0.0170161 0
-0.0271828 0.0216268 0
-0.0258449 0.0235715 0
-0.0341854 0.0289609 0
-0.0258449 0.0235715 0
-0.0341854 0.0289609 0
-0.0309609 0.0340447 0
-0.0580157 0.0538218 0
-0.0309609 0.0340447 0
-0.0580157 0.0538218 0
-0.0642618 0.0651038 0
-0.134823 0.119983 0
-0.0642618 0.0651038 0
-0.134823 0.119983 0
-0.118746 0.131899 0
-0.196024 0.201074 0
-0.160325 0.271457 0
-0.16348 0.247778 0
-0.138813 0.276183 0
-0.138355 0.245733 0
-0.138813 0.276183 0
-0.138355 0.245733 0
-0.115211 0.275196 0
-0.11586 0.246624 0
-0.115211 0.275196 0
-0.11586 0.246624 0
-0.0925266 0.275349 0
-0.0946405 0.249056 0
-0.0925266 0.275349 0
-0.0946405 0.249056 0
-0.0713809 0.27692 0
-0.0738098 0.251878 0
-0.0713809 0.27692 0
-0.0738098 0.251878 0
-0.0506863 0.279118 0
-0.0533339 0.254619 0
-0.0506863 0.279118 0
-0.0533339 0.254619 0
-0.0309207 0.281429 0
-0.0331185 0.257015 0
-0.0309207 0.281429 0
-0.0331185 0.257015 0
-0.0111536 0.283399 0
-0.0130652 0.25905 0
-0.0111536 0.283399 0
-0.0130652 0.25905 0
0.00837737 0.285144 0
0.00686552 0.260599 0
0.00837737 0.285144 0
0.00686552 0.260599 0
0.0277939 0.286608 0
0.0266066 0.261691 0
0.0277939 0.286608 0
0.0266066 0.261691 0
0.0475074 0.287946 0
0.0465109 0.262374 0
0.0475074 0.287946 0
0.0465109 0.262374 0
0.0673733 0.289465 0
0.0662558 0.262764 0
0.0673733 0.289465 0
0.0662558 0.262764 0
0.0878409 0.291278 0
0.086495 0.263196 0
0.0878409 0.291278 0
0.086495 0.263196 0
0.108442 0.293058 0
0.106835 0.264105 0
0.108442 0.293058 0
0.106835 0.264105 0
0.128651 0.293392 0
0.127893 0.265873 0
0.128651 0.293392 0
0.127893 0.265873 0
0.145842 0.28889 0
0.148831 0.267957 0
0.145842 0.28889 0
0.148831 0.267957 0
0.156973 0.274994 0
0.168058 0.267711 0
0.156973 0.274994 0
0.168058 0.267711 0
0.156352 0.247481 0
0.180718 0.259902 0
0.156352 0.247481 0
0.180718 0.259902 0
0.141006 0.205268 0
0.180156 0.238788 0
0.141006 0.205268 0
0.180156 0.238788 0
0.108774 0.152005 0
0.160455 0.201449 0
0.108774 0.152005 0
0.160455 0.201449 0
0.0663206 0.0987832 0
0.118129 0.151253 0
0.0663206 0.0987832 0
0.118129 0.151253 0
0.0217365 0.0576302 0
0.0635126 0.0987807 0
-0.207535 0.239351 0
-0.21303 0.22235 0
-0.186974 0.247002 0
-0.186833 0.220085 0
-0.186974 0.247002 0
-0.186833 0.220085 0
-0.16348 0.247778 0
-0.16195 0.217652 0
-0.16348 0.247778 0
-0.16195 0.217652 0
-0.138355 0.245733 0
-0.139778 0.219543 0
-0.138355 0.245733 0
-0.139778 0.219543 0
-0.11586 0.246624 0
-0.118593 0.222718 0
-0.11586 0.246624 0
-0.118593 0.222718 0
-0.0946405 0.249056 0
-0.0974702 0.225761 0
-0.0946405 0.249056 0
-0.0974702 0.225761 0
-0.0738098 0.251878 0
-0.0765217 0.228401 0
-0.0738098 0.251878 0
-0.0765217 0.228401 0
-0.0533339 0.254619 0
-0.0557065 0.230666 0
-0.0533339 0.254619 0
-0.0557065 0.230666 0
-0.0331185 0.257015 0
-0.0352247 0.232663 0
-0.0331185 0.257015 0
-0.0352247 0.232663 0
-0.0130652 0.25905 0
-0.0147851 0.23439 0
-0.0130652 0.25905 0
-0.0147851 0.23439 0
0.00686552 0.260599 0
0.0054548 0.235876 0
0.00686552 0.260599 0
0.0054548 0.235876 0
0.0266066 0.261691 0
0.0256264 0.237087 0
0.0266066 0.261691 0
0.0256264 0.237087 0
0.0465109 0.262374 0
0.0457925 0.237999 0
0.0465109 0.262374 0
0.0457925 0.237999 0
0.0662558 0.262764 0
0.0659081 0.238574 0
0.0662558 0.262764 0
0.0659081 0.238574 0
0.086495 0.263196 0
0.0860737 0.238798 0
0.086495 0.263196 0
0.0860737 0.238798 0
0.106835 0.264105 0
0.106232 0.238777 0
0.106835 0.264105 0
0.106232 0.238777 0
0.127893 0.265873 0
0.12641 0.238906 0
0.127893 0.265873 0
0.12641 0.238906 0
0.148831 0.267957 0
0.147131 0.239817 0
0.148831 0.267957 0
0.147131 0.239817 0
0.168058 0.267711 0
0.167935 0.241677 0
0.168058 0.267711 0
0.167935 0.241677 0
0.180718 0.259902 0
0.187738 0.242507 0
0.180718 0.259902 0
0.187738 0.242507 0
0.180156 0.238788 0
0.199913 0.236856 0
0.180156 0.238788 0
0.199913 0.236856 0
0.160455 0.201449 0
0.197113 0.217927 0
0.160455 0.201449 0
0.197113 0.217927 0
0.118129 0.151253 0
0.168263 0.181511 0
0.118129 0.151253 0
0.168263 0.181511 0
0.0635126 0.0987807 0
0.116 0.131303 0
-0.234223 0.216325 0
-0.239075 0.196971 0
-0.21303 0.22235 0
-0.210672 0.19346 0
-0.21303 0.22235 0
-0.210672 0.19346 0
-0.186833 0.220085 0
-0.185577 0.191925 0
-0.186833 0.220085 0
-0.185577 0.191925 0
-0.16195 0.217652 0
-0.164186 0.195135 0
-0.16195 0.217652 0
-0.164186 0.195135 0
-0.139778 0.219543 0
-0.142712 0.198306 0
-0.139778 0.219543 0
-0.142712 0.198306 0
-0.118593 0.222718 0
-0.121208 0.200586 0
-0.118593 0.222718 0
-0.121208 0.200586 0
-0.0974702 0.225761 0
-0.099816 0.202459 0
-0.0974702 0.225761 0
-0.099816 0.202459 0
-0.0765217 0.228401 0
-0.0786506 0.204268 0
-0.0765217 0.228401 0
-0.0786506 0.204268 0
-0.0557065 0.230666 0
-0.0576973 0.206093 0
-0.0557065 0.230666 0
-0.0576973 0.206093 0
-0.0352247 0.232663 0
-0.0370288 0.20786 0
-0.0352247 0.232663 0
-0.0370288 0.20786 0
-0.0147851 0.23439 0
-0.0163629 0.209495 0
-0.0147851 0.23439 0
-0.0163629 0.209495 0
0.0054548 0.235876 0
0.00406357 0.210934 0
0.0054548 0.235876 0
0.00406357 0.210934 0
0.0256264 0.237087 0
0.0245501 0.212152 0
0.0256264 0.237087 0
0.0245501 0.212152 0
0.0457925 0.237999 0
0.0449068 0.213146 0
0.0457925 0.237999 0
0.0449068 0.213146 0
0.0659081 0.238574 0
0.0653978 0.21392 0
0.0659081 0.238574 0
0.0653978 0.21392 0
0.0860737 0.238798 0
0.0857858 0.214439 0
0.0860737 0.238798 0
0.0857858 0.214439 0
0.106232 0.238777 0
0.106283 0.214639 0
0.106232 0.238777 0
0.106283 0.214639 0
0.12641 0.238906 0
0.126355 0.214431 0
0.12641 0.238906 0
0.126355 0.214431 0
0.147131 0.239817 0
0.146583 0.214029 0
0.147131 0.239817 0
0.146583 0.214029 0
0.167935 0.241677 0
0.166534 0.213975 0
0.167935 0.241677 0
0.166534 0.213975 0
0.187738 0.242507 0
0.187368 0.214775 0
0.187738 0.242507 0
0.187368 0.214775 0
0.199913 0.236856 0
0.206153 0.214472 0
0.199913 0.236856 0
0.206153 0.214472 0
0.197113 0.217927 0
0.21698 0.207291 0
0.197113 0.217927 0
0.21698 0.207291 0
0.168263 0.181511 0
0.206914 0.185418 0
0.168263 0.181511 0
0.206914 0.185418 0
0.116 0.131303 0
0.167627 0.145298 0
-0.258404 0.1891 0
-0.265462 0.172889 0
-0.239075 0.196971 0
-0.235661 0.168706 0
-0.239075 0.196971 0
-0.235661 0.168706 0
-0.210672 0.19346 0
-0.209616 0.167663 0
-0.210672 0.19346 0
-0.209616 0.167663 0
-0.185577 0.191925 0
-0.188171 0.170657 0
-0.185577 0.191925 0
-0.188171 0.170657 0
-0.164186 0.195135 0
-0.166713 0.172649 0
-0.164186 0.195135 0
-0.166713 0.172649 0
-0.142712 0.198306 0
-0.14481 0.174187 0
-0.142712 0.198306 0
-0.14481 0.174187 0
-0.121208 0.200586 0
-0.123145 0.175959 0
-0.121208 0.200586 0
-0.123145 0.175959 0
-0.099816 0.202459 0
-0.101747 0.177952 0
-0.099816 0.202459 0
-0.101747 0.177952 0
-0.0786506 0.204268 0
-0.0805556 0.179971 0
-0.0786506 0.204268 0
-0.0805556 0.179971 0
-0.0576973 0.206093 0
-0.059541 0.181875 0
-0.0576973 0.206093 0
-0.059541 0.181875 0
-0.0370288 0.20786 0
-0.0387071 0.183615 0
-0.0370288 0.20786 0
-0.0387071 0.183615 0
-0.0163629 0.209495 0
-0.0178889 0.185176 0
-0.0163629 0.209495 0
-0.0178889 0.185176 0
0.00406357 0.210934 0
0.00276014 0.186546 0
0.00406357 0.210934 0
0.00276014 0.186546 0
0.0245501 0.212152 0
0.0234489 0.187711 0
0.0245501 0.212152 0
0.0234489 0.187711 0
0.0449068 0.213146 0
0.0440417 0.188654 0
0.0449068 0.213146 0
0.0440417 0.188654 0
0.0653978 0.21392 0
0.06474 0.189375 0
0.0653978 0.21392 0
0.06474 0.189375 0
0.0857858 0.214439 0
0.0854017 0.189868 0
0.0857858 0.214439 0
0.0854017 0.189868 0
0.106283 0.214639 0
0.106168 0.190128 0
0.106283 0.214639 0
0.106168 0.190128 0
0.126355 0.214431 0
0.126719 0.190049 0
0.126355 0.214431 0
0.126719 0.190049 0
0.146583 0.214029 0
0.147157 0.189467 0
0.146583 0.214029 0
0.147157 0.189467 0
0.166534 0.213975 0
0.167077 0.188357 0
0.166534 0.213975 0
0.167077 0.188357 0
0.187368 0.214775 0
0.18713 0.187158 0
0.187368 0.214775 0
0.18713 0.187158 0
0.206153 0.214472 0
0.207605 0.186185 0
0.206153 0.214472 0
0.207605 0.186185 0
0.21698 0.207291 0
0.225868 0.182947 0
0.21698 0.207291 0
0.225868 0.182947 0
0.206914 0.185418 0
0.232448 0.170615 0
0.206914 0.185418 0
0.232448 0.170615 0
0.167627 0.145298 0
0.211054 0.141782 0
-0.265462 0.172889 0
-0.262779 0.145018 0
-0.235661 0.168706 0
-0.2342 0.144649 0
-0.235661 0.168706 0
-0.2342 0.144649 0
-0.209616 0.167663 0
-0.211794 0.146207 0
-0.209616 0.167663 0
-0.211794 0.146207 0
-0.188171 0.170657 0
-0.190317 0.147464 0
-0.188171 0.170657 0
-0.190317 0.147464 0
-0.166713 0.172649 0
-0.168533 0.149376 0
-0.166713 0.172649 0
-0.168533 0.149376 0
-0.14481 0.174187 0
-0.146614 0.151383 0
-0.14481 0.174187 0
-0.146614 0.151383 0
-0.123145 0.175959 0
-0.124974 0.153171 0
-0.123145 0.175959 0
-0.124974 0.153171 0
-0.101747 0.177952 0
-0.103572 0.154808 0
-0.101747 0.177952 0
-0.103572 0.154808 0
-0.0805556 0.179971 0
-0.082313 0.156373 0
-0.0805556 0.179971 0
-0.082313 0.156373 0
-0.059541 0.181875 0
-0.0612373 0.157925 0
-0.059541 0.181875 0
-0.0612373 0.157925 0
-0.0387071 0.183615 0
-0.0402614 0.159446 0
-0.0387071 0.183615 0
-0.0402614 0.159446 0
-0.0178889 0.185176 0
-0.0193391 0.160901 0
-0.0178889 0.185176 0
-0.0193391 0.160901 0
0.00276014 0.186546 0
0.00150553 0.162241 0
0.00276014 0.186546 0
0.00150553 0.162241 0
0.0234489 0.187711 0
0.0223504 0.163432 0
0.0234489 0.187711 0
0.0223504 0.163432 0
0.0440417 0.188654 0
0.0431951 0.164436 0
0.0440417 0.188654 0
0.0431951 0.164436 0
0.06474 0.189375 0
0.0640854 0.165217 0
0.06474 0.189375 0
0.0640854 0.165217 0
0.0854017 0.189868 0
0.0850526 0.165732 0
0.0854017 0.189868 0
0.0850526 0.165732 0
0.106168 0.190128 0
0.106037 0.165941 0
0.106168 0.190128 0
0.106037 0.165941 0
0.126719 0.190049 0
0.127066 0.165801 0
0.126719 0.190049 0
0.127066 0.165801 0
0.147157 0.189467 0
0.147996 0.16518 0
0.147157 0.189467 0
0.147996 0.16518 0
0.167077 0.188357 0
0.1687 0.163827 0
0.167077 0.188357 0
0.1687 0.163827 0
0.18713 0.187158 0
0.188872 0.161621 0
0.18713 0.187158 0
0.188872 0.161621 0
0.207605 0.186185 0
0.209571 0.15887 0
0.207605 0.186185 0
0.209571 0.15887 0
0.225868 0.182947 0
0.23056 0.155375 0
0.225868 0.182947 0
0.23056 0.155375 0
0.232448 0.170615 0
0.248322 0.147316 0
0.232448 0.170615 0
0.248322 0.147316 0
0.211054 0.141782 0
0.244286 0.12713 0
-0.291887 0.145537 0
-0.292623 0.122828 0
-0.262779 0.145018 0
-0.260538 0.121727 0
-0.262779 0.145018 0
-0.260538 0.121727 0
-0.2342 0.144649 0
-0.235044 0.120687 0
-0.2342 0.144649 0
-0.235044 0.120687 0
-0.211794 0.146207 0
-0.213954 0.122203 0
-0.211794 0.146207 0
-0.213954 0.122203 0
-0.190317 0.147464 0
-0.192216 0.124973 0
-0.190317 0.147464 0
-0.192216 0.124973 0
-0.168533 0.149376 0
-0.170093 0.126543 0
-0.168533 0.149376 0
-0.170093 0.126543 0
-0.146614 0.151383 0
-0.14819 0.1277 0
-0.146614 0.151383 0
-0.14819 0.1277 0
-0.124974 0.153171 0
-0.126581 0.129096 0
-0.124974 0.153171 0
-0.126581 0.129096 0
-0.103572 0.154808 0
-0.105169 0.130664 0
-0.103572 0.154808 0
-0.105169 0.130664 0
-0.082313 0.156373 0
-0.0839169 0.132294 0
-0.082313 0.156373 0
-0.0839169 0.132294 0
-0.0612373 0.157925 0
-0.0628056 0.133901 0
-0.0612373 0.157925 0
-0.0628056 0.133901 0
-0.0402614 0.159446 0
-0.0417518 0.135432 0
-0.0402614 0.159446 0
-0.0417518 0.135432 0
-0.0193391 0.160901 0
-0.0207416 0.136864 0
-0.0193391 0.160901 0
-0.0207416 0.136864 0
0.00150553 0.162241 0
0.000243652 0.138179 0
0.00150553 0.162241 0
0.000243652 0.138179 0
0.0223504 0.163432 0
0.0212326 0.139358 0
0.0223504 0.163432 0
0.0212326 0.139358 0
0.0431951 0.164436 0
0.042286 0.140372 0
0.0431951 0.164436 0
0.042286 0.140372 0
0.0640854 0.165217 0
0.0633877 0.141189 0
0.0640854 0.165217 0
0.0633877 0.141189 0
0.0850526 0.165732 0
0.0846578 0.141764 0
0.0850526 0.165732 0
0.0846578 0.141764 0
0.106037 0.165941 0
0.105946 0.142031 0
0.106037 0.165941 0
0.105946 0.142031 0
0.127066 0.165801 0
0.127429 0.141901 0
0.127066 0.165801 0
0.127429 0.141901 0
0.147996 0.16518 0
0.148881 0.141267 0
0.147996 0.16518 0
0.148881 0.141267 0
0.1687 0.163827 0
0.170531 0.139915 0
0.1687 0.163827 0
0.170531 0.139915 0
0.188872 0.161621 0
0.191665 0.137489 0
0.188872 0.161621 0
0.191665 0.137489 0
0.209571 0.15887 0
0.213108 0.133928 0
0.209571 0.15887 0
0.213108 0.133928 0
0.23056 0.155375 0
0.235039 0.129371 0
0.23056 0.155375 0
0.235039 0.129371 0
0.248322 0.147316 0
0.258821 0.122578 0
0.248322 0.147316 0
0.258821 0.122578 0
0.244286 0.12713 0
0.268764 0.107942 0
-0.292623 0.122828 0
-0.291219 0.0984623 0
-0.260538 0.121727 0
-0.259501 0.096962 0
-0.260538 0.121727 0
-0.259501 0.096962 0