# vtk DataFile Version 3.0
#This file was generated by the deal.II library on 2026/3/25 at 11:21:10
ASCII
DATASET UNSTRUCTURED_GRID

POINTS 8020 double
0 0 0
0.03125 0 0
0 0.03125 0
0.03125 0.03125 0
0 0.03125 0
0.03125 0.03125 0
0 0.0625 0
0.03125 0.0625 0
0 0.0625 0
0.03125 0.0625 0
0 0.09375 0
0.03125 0.09375 0
0 0.09375 0
0.03125 0.09375 0
0 0.125 0
0.03125 0.125 0
0 0.125 0
0.03125 0.125 0
0 0.15625 0
0.03125 0.15625 0
0 0.15625 0
0.03125 0.15625 0
0 0.1875 0
0.03125 0.1875 0
0 0.1875 0
0.03125 0.1875 0
0 0.21875 0
0.03125 0.21875 0
0 0.21875 0
0.03125 0.21875 0
0 0.25 0
0.03125 0.25 0
0 0.25 0
0.03125 0.25 0
0 0.28125 0
0.03125 0.28125 0
0 0.28125 0
0.03125 0.28125 0
0 0.3125 0
0.03125 0.3125 0
0.03125 0 0
0.0625 0 0
0.03125 0.03125 0
0.0625 0.03125 0
0.03125 0.03125 0
0.0625 0.03125 0
0.03125 0.0625 0
0.0625 0.0625 0
0.03125 0.0625 0
0.0625 0.0625 0
0.03125 0.09375 0
0.0625 0.09375 0
0.03125 0.09375 0
0.0625 0.09375 0
0.03125 0.125 0
0.0625 0.125 0
0.03125 0.125 0
0.0625 0.125 0
0.03125 0.15625 0
0.0625 0.15625 0
0.03125 0.15625 0
0.0625 0.15625 0
0.03125 0.1875 0
0.0625 0.1875 0
0.03125 0.1875 0
0.0625 0.1875 0
0.03125 0.21875 0
0.0625 0.21875 0
0.03125 0.21875 0
0.0625 0.21875 0
0.03125 0.25 0
0.0625 0.25 0
0.03125 0.25 0
0.0625 0.25 0
0.03125 0.28125 0
0.0625 0.28125 0
0.03125 0.28125 0
0.0625 0.28125 0
0.03125 0.3125 0
0.0625 0.3125 0
0.0625 0 0
0.09375 0 0
0.0625 0.03125 0
0.09375 0.03125 0
0.0625 0.03125 0
0.09375 0.03125 0
0.0625 0.0625 0
0.09375 0.0625 0
0.0625 0.0625 0
0.09375 0.0625 0
0.0625 0.09375 0
0.09375 0.09375 0
0.0625 0.09375 0
0.09375 0.09375 0
0.0625 0.125 0
0.09375 0.125 0
0.0625 0.125 0
0.09375 0.125 0
0.0625 0.15625 0
0.09375 0.15625 0
0.0625 0.15625 0
0.09375 0.15625 0
0.0625 0.1875 0
0.09375 0.1875 0
0.0625 0.1875 0
0.09375 0.1875 0
0.0625 0.21875 0
0.09375 0.21875 0
0.0625 0.21875 0
0.09375 0.21875 0
0.0625 0.25 0
0.09375 0.25 0
0.0625 0.25 0
0.09375 0.25 0
0.0625 0.28125 0
0.09375 0.28125 0
0.0625 0.28125 0
0.09375 0.28125 0
0.0625 0.3125 0
0.09375 0.3125 0
0.0625 0.625 0
0.09375 0.625 0
0.0625 0.65625 0
0.09375 0.65625 0
0.0625 0.65625 0
0.09375 0.65625 0
0.0625 0.6875 0
0.09375 0.6875 0
0.0625 0.6875 0
0.09375 0.6875 0
0.0625 0.71875 0
0.09375 0.71875 0
0.0625 0.71875 0
0.09375 0.71875 0
0.0625 0.75 0
0.09375 0.75 0
0.0625 0.75 0
0.09375 0.75 0
0.0625 0.78125 0
0.09375 0.78125 0
0.0625 0.78125 0
0.09375 0.78125 0
0.0625 0.8125 0
0.09375 0.8125 0
0.0625 0.8125 0
0.09375 0.8125 0
0.0625 0.84375 0
0.09375 0.84375 0
0.0625 0.84375 0
0.09375 0.84375 0
0.0625 0.875 0
0.09375 0.875 0
0.09375 0 0
0.125 0 0
0.09375 0.03125 0
0.125 0.03125 0
0.09375 0.03125 0
0.125 0.03125 0
0.09375 0.0625 0
0.125 0.0625 0
0.09375 0.0625 0
0.125 0.0625 0
0.09375 0.09375 0
0.125 0.09375 0
0.09375 0.09375 0
0.125 0.09375 0
0.09375 0.125 0
0.125 0.125 0
0.09375 0.125 0
0.125 0.125 0
0.09375 0.15625 0
0.125 0.15625 0
0.09375 0.15625 0
0.125 0.15625 0
0.09375 0.1875 0
0.125 0.1875 0
0.09375 0.1875 0
0.125 0.1875 0
0.09375 0.21875 0
0.125 0.21875 0
0.09375 0.21875 0
0.125 0.21875 0
0.09375 0.25 0
0.125 0.25 0
0.09375 0.25 0
0.125 0.25 0
0.09375 0.28125 0
0.125 0.28125 0
0.09375 0.28125 0
0.125 0.28125 0
0.09375 0.3125 0
0.125 0.3125 0
0.09375 0.46875 0
0.125 0.46875 0
0.09375 0.5 0
0.125 0.5 0
0.09375 0.5 0
0.125 0.5 0
0.09375 0.53125 0
0.125 0.53125 0
0.09375 0.53125 0
0.125 0.53125 0
0.09375 0.5625 0
0.125 0.5625 0
0.09375 0.5625 0
0.125 0.5625 0
0.09375 0.59375 0
0.125 0.59375 0
0.09375 0.59375 0
0.125 0.59375 0
0.09375 0.625 0
0.125 0.625 0
0.09375 0.625 0
0.125 0.625 0
0.09375 0.65625 0
0.125 0.65625 0
0.09375 0.65625 0
0.125 0.65625 0
0.09375 0.6875 0
0.125 0.6875 0
0.09375 0.6875 0
0.125 0.6875 0
0.09375 0.71875 0
0.125 0.71875 0
0.09375 0.71875 0
0.125 0.71875 0
0.09375 0.75 0
0.125 0.75 0
0.09375 0.75 0
0.125 0.75 0
0.09375 0.78125 0
0.125 0.78125 0
0.09375 0.78125 0
0.125 0.78125 0
0.09375 0.8125 0
0.125 0.8125 0
0.09375 0.8125 0
0.125 0.8125 0
0.09375 0.84375 0
0.125 0.84375 0
0.09375 0.84375 0
0.125 0.84375 0
0.09375 0.875 0
0.125 0.875 0
0.125 0 0
0.15625 0 0
0.125 0.03125 0
0.15625 0.03125 0
0.125 0.03125 0
0.15625 0.03125 0
0.125 0.0625 0
0.15625 0.0625 0
0.125 0.0625 0
0.15625 0.0625 0
0.125 0.09375 0
0.15625 0.09375 0
0.125 0.09375 0
0.15625 0.09375 0
0.125 0.125 0
0.15625 0.125 0
0.125 0.125 0
0.15625 0.125 0
0.125 0.15625 0
0.15625 0.15625 0
0.125 0.15625 0
0.15625 0.15625 0
0.125 0.1875 0
0.15625 0.1875 0
0.125 0.1875 0
0.15625 0.1875 0
0.125 0.21875 0
0.15625 0.21875 0
0.125 0.28125 0
0.15625 0.28125 0
0.125 0.3125 0
0.15625 0.3125 0
0.125 0.3125 0
0.15625 0.3125 0
0.125 0.34375 0
0.15625 0.34375 0
0.125 0.34375 0
0.15625 0.34375 0
0.125 0.375 0
0.15625 0.375 0
0.125 0.375 0
0.15625 0.375 0
0.125 0.40625 0
0.15625 0.40625 0
0.125 0.40625 0
0.15625 0.40625 0
0.125 0.4375 0
0.15625 0.4375 0
0.125 0.4375 0
0.15625 0.4375 0
0.125 0.46875 0
0.15625 0.46875 0
0.125 0.46875 0
0.15625 0.46875 0
0.125 0.5 0
0.15625 0.5 0
0.125 0.5 0
0.15625 0.5 0
0.125 0.53125 0
0.15625 0.53125 0
0.125 0.53125 0
0.15625 0.53125 0
0.125 0.5625 0
0.15625 0.5625 0
0.125 0.5625 0
0.15625 0.5625 0
0.125 0.59375 0
0.15625 0.59375 0
0.125 0.59375 0
0.15625 0.59375 0
0.125 0.625 0
0.15625 0.625 0
0.125 0.625 0
0.15625 0.625 0
0.125 0.65625 0
0.15625 0.65625 0
0.125 0.65625 0
0.15625 0.65625 0
0.125 0.6875 0
0.15625 0.6875 0
0.125 0.6875 0
0.15625 0.6875 0
0.125 0.71875 0
0.15625 0.71875 0
0.125 0.71875 0
0.15625 0.71875 0
0.125 0.75 0
0.15625 0.75 0
0.125 0.75 0
0.15625 0.75 0
0.125 0.78125 0
0.15625 0.78125 0
0.125 0.78125 0
0.15625 0.78125 0
0.125 0.8125 0
0.15625 0.8125 0
0.125 0.8125 0
0.15625 0.8125 0
0.125 0.84375 0
0.15625 0.84375 0
0.125 0.84375 0
0.15625 0.84375 0
0.125 0.875 0
0.15625 0.875 0
0.125 0.875 0
0.15625 0.875 0
0.125 0.90625 0
0.15625 0.90625 0
0.15625 0 0
0.1875 0 0
0.15625 0.03125 0
0.1875 0.03125 0
0.15625 0.03125 0
0.1875 0.03125 0
0.15625 0.0625 0
0.1875 0.0625 0
0.15625 0.0625 0
0.1875 0.0625 0
0.15625 0.09375 0
0.1875 0.09375 0
0.15625 0.09375 0
0.1875 0.09375 0
0.15625 0.125 0
0.1875 0.125 0
0.15625 0.125 0
0.1875 0.125 0
0.15625 0.15625 0
0.1875 0.15625 0
0.15625 0.25 0
0.1875 0.25 0
0.15625 0.28125 0
0.1875 0.28125 0
0.15625 0.28125 0
0.1875 0.28125 0
0.15625 0.3125 0
0.1875 0.3125 0
0.15625 0.3125 0
0.1875 0.3125 0
0.15625 0.34375 0
0.1875 0.34375 0
0.15625 0.34375 0
0.1875 0.34375 0
0.15625 0.375 0
0.1875 0.375 0
0.15625 0.375 0
0.1875 0.375 0
0.15625 0.40625 0
0.1875 0.40625 0
0.15625 0.40625 0
0.1875 0.40625 0
0.15625 0.4375 0
0.1875 0.4375 0
0.15625 0.4375 0
0.1875 0.4375 0
0.15625 0.46875 0
0.1875 0.46875 0
0.15625 0.46875 0
0.1875 0.46875 0
0.15625 0.5 0
0.1875 0.5 0
0.15625 0.5 0
0.1875 0.5 0
0.15625 0.53125 0
0.1875 0.53125 0
0.15625 0.53125 0
0.1875 0.53125 0
0.15625 0.5625 0
0.1875 0.5625 0
0.15625 0.5625 0
0.1875 0.5625 0
0.15625 0.59375 0
0.1875 0.59375 0
0.15625 0.59375 0
0.1875 0.59375 0
0.15625 0.625 0
0.1875 0.625 0
0.15625 0.625 0
0.1875 0.625 0
0.15625 0.65625 0
0.1875 0.65625 0
0.15625 0.65625 0
0.1875 0.65625 0
0.15625 0.6875 0
0.1875 0.6875 0
0.15625 0.6875 0
0.1875 0.6875 0
0.15625 0.71875 0
0.1875 0.71875 0
0.15625 0.71875 0
0.1875 0.71875 0
0.15625 0.75 0
0.1875 0.75 0
0.15625 0.75 0
0.1875 0.75 0
0.15625 0.78125 0
0.1875 0.78125 0
0.15625 0.78125 0
0.1875 0.78125 0
0.15625 0.8125 0
0.1875 0.8125 0
0.15625 0.8125 0
0.1875 0.8125 0
0.15625 0.84375 0
0.1875 0.84375 0
0.15625 0.84375 0
0.1875 0.84375 0
0.15625 0.875 0
0.1875 0.875 0
0.15625 0.875 0
0.1875 0.875 0
0.15625 0.90625 0
0.1875 0.90625 0
0.1875 0.1875 0
0.21875 0.1875 0
0.1875 0.21875 0
0.21875 0.21875 0
0.1875 0.21875 0
0.21875 0.21875 0
0.1875 0.25 0
0.21875 0.25 0
0.1875 0.25 0
0.21875 0.25 0
0.1875 0.28125 0
0.21875 0.28125 0
0.1875 0.28125 0
0.21875 0.28125 0
0.1875 0.3125 0
0.21875 0.3125 0
0.1875 0.3125 0
0.21875 0.3125 0
0.1875 0.34375 0
0.21875 0.34375 0
0.1875 0.34375 0
0.21875 0.34375 0
0.1875 0.375 0
0.21875 0.375 0
0.1875 0.375 0
0.21875 0.375 0
0.1875 0.40625 0
0.21875 0.40625 0
0.1875 0.40625 0
0.21875 0.40625 0
0.1875 0.4375 0
0.21875 0.4375 0
0.1875 0.4375 0
0.21875 0.4375 0
0.1875 0.46875 0
0.21875 0.46875 0
0.1875 0.46875 0
0.21875 0.46875 0
0.1875 0.5 0
0.21875 0.5 0
0.1875 0.5 0
0.21875 0.5 0
0.1875 0.53125 0
0.21875 0.53125 0
0.1875 0.53125 0
0.21875 0.53125 0
0.1875 0.5625 0
0.21875 0.5625 0
0.1875 0.5625 0
0.21875 0.5625 0
0.1875 0.59375 0
0.21875 0.59375 0
0.1875 0.59375 0
0.21875 0.59375 0
0.1875 0.625 0
0.21875 0.625 0
0.1875 0.625 0
0.21875 0.625 0
0.1875 0.65625 0
0.21875 0.65625 0
0.1875 0.65625 0
0.21875 0.65625 0
0.1875 0.6875 0
0.21875 0.6875 0
0.1875 0.6875 0
0.21875 0.6875 0
0.1875 0.71875 0
0.21875 0.71875 0
0.1875 0.71875 0
0.21875 0.71875 0
0.1875 0.75 0
0.21875 0.75 0
0.1875 0.75 0
0.21875 0.75 0
0.1875 0.78125 0
0.21875 0.78125 0
0.1875 0.78125 0
0.21875 0.78125 0
0.1875 0.8125 0
0.21875 0.8125 0
0.1875 0.8125 0
0.21875 0.8125 0
0.1875 0.84375 0
0.21875 0.84375 0
0.1875 0.84375 0
0.21875 0.84375 0
0.1875 0.875 0
0.21875 0.875 0
0.1875 0.875 0
0.21875 0.875 0
0.1875 0.90625 0
0.21875 0.90625 0
0.21875 0.15625 0
0.25 0.15625 0
0.21875 0.1875 0
0.25 0.1875 0
0.21875 0.1875 0
0.25 0.1875 0
0.21875 0.21875 0
0.25 0.21875 0
0.21875 0.21875 0
0.25 0.21875 0
0.21875 0.25 0
0.25 0.25 0
0.21875 0.25 0
0.25 0.25 0
0.21875 0.28125 0
0.25 0.28125 0
0.21875 0.28125 0
0.25 0.28125 0
0.21875 0.3125 0
0.25 0.3125 0
0.21875 0.3125 0
0.25 0.3125 0
0.21875 0.34375 0
0.25 0.34375 0
0.21875 0.34375 0
0.25 0.34375 0
0.21875 0.375 0
0.25 0.375 0
0.21875 0.375 0
0.25 0.375 0
0.21875 0.40625 0
0.25 0.40625 0
0.21875 0.40625 0
0.25 0.40625 0
0.21875 0.4375 0
0.25 0.4375 0
0.21875 0.4375 0
0.25 0.4375 0
0.21875 0.46875 0
0.25 0.46875 0
0.21875 0.46875 0
0.25 0.46875 0
0.21875 0.5 0
0.25 0.5 0
0.21875 0.5 0
0.25 0.5 0
0.21875 0.53125 0
0.25 0.53125 0
0.21875 0.53125 0
0.25 0.53125 0
0.21875 0.5625 0
0.25 0.5625 0
0.21875 0.5625 0
0.25 0.5625 0
0.21875 0.59375 0
0.25 0.59375 0
0.21875 0.59375 0
0.25 0.59375 0
0.21875 0.625 0
0.25 0.625 0
0.21875 0.625 0
0.25 0.625 0
0.21875 0.65625 0
[...]
POINT_DATA 8020
VECTORS velocity double
0 0 0
-0.00206512 -0.00349075 0
0 0 0
-0.0023011 0.00040393 0
0 0 0
-0.0023011 0.00040393 0
0 0 0
-0.00234684 0.00421735 0
0 0 0
-0.00234684 0.00421735 0
0 0 0
-0.00303957 0.00880109 0
0 0 0
-0.00303957 0.00880109 0
0 0 0
-0.00273642 0.0135786 0
0 0 0
-0.00273642 0.0135786 0
0 0 0
-0.0045678 0.0200347 0
0 0 0
-0.0045678 0.0200347 0
0 0 0
-0.00488452 0.0285265 0
0 0 0
-0.00488452 0.0285265 0
0 0 0
-0.0067949 0.0394752 0
0 0 0
-0.0067949 0.0394752 0
0 0 0
-0.00926226 0.0547471 0
0 0 0
-0.00926226 0.0547471 0
0 0 0
-0.0121639 0.0755808 0
0 0 0
-0.0121639 0.0755808 0
0 0 0
-0.0147669 0.102105 0
-0.00206512 -0.00349075 0
-0.00623399 -0.000953614 0
-0.0023011 0.00040393 0
-0.00648806 0.00376402 0
-0.0023011 0.00040393 0
-0.00648806 0.00376402 0
-0.00234684 0.00421735 0
-0.00660044 0.0087351 0
-0.00234684 0.00421735 0
-0.00660044 0.0087351 0
-0.00303957 0.00880109 0
-0.00857287 0.0143562 0
-0.00303957 0.00880109 0
-0.00857287 0.0143562 0
-0.00273642 0.0135786 0
-0.00795369 0.0204617 0
-0.00273642 0.0135786 0
-0.00795369 0.0204617 0
-0.0045678 0.0200347 0
-0.0137222 0.0288225 0
-0.0045678 0.0200347 0
-0.0137222 0.0288225 0
-0.00488452 0.0285265 0
-0.0146828 0.0394964 0
-0.00488452 0.0285265 0
-0.0146828 0.0394964 0
-0.0067949 0.0394752 0
-0.0256121 0.0577528 0
-0.0067949 0.0394752 0
-0.0256121 0.0577528 0
-0.00926226 0.0547471 0
-0.0353003 0.0876937 0
-0.00926226 0.0547471 0
-0.0353003 0.0876937 0
-0.0121639 0.0755808 0
-0.0453826 0.126519 0
-0.0121639 0.0755808 0
-0.0453826 0.126519 0
-0.0147669 0.102105 0
-0.0496691 0.168404 0
-0.00623399 -0.000953614 0
-0.010847 0.00298904 0
-0.00648806 0.00376402 0
-0.0114592 0.00795044 0
-0.00648806 0.00376402 0
-0.0114592 0.00795044 0
-0.00660044 0.0087351 0
-0.0120571 0.0134251 0
-0.00660044 0.0087351 0
-0.0120571 0.0134251 0
-0.00857287 0.0143562 0
-0.0141106 0.0189084 0
-0.00857287 0.0143562 0
-0.0141106 0.0189084 0
-0.00795369 0.0204617 0
-0.0166888 0.0268726 0
-0.00795369 0.0204617 0
-0.0166888 0.0268726 0
-0.0137222 0.0288225 0
-0.0250226 0.0386584 0
-0.0137222 0.0288225 0
-0.0250226 0.0386584 0
-0.0146828 0.0394964 0
-0.0395119 0.0638927 0
-0.0146828 0.0394964 0
-0.0395119 0.0638927 0
-0.0256121 0.0577528 0
-0.0651304 0.110104 0
-0.0256121 0.0577528 0
-0.0651304 0.110104 0
-0.0353003 0.0876937 0
-0.0829446 0.167015 0
-0.0353003 0.0876937 0
-0.0829446 0.167015 0
-0.0453826 0.126519 0
-0.0936294 0.223876 0
-0.0453826 0.126519 0
-0.0936294 0.223876 0
-0.0496691 0.168404 0
-0.0895621 0.269893 0
0.0514532 0.22849 0
0.0759096 0.306518 0
0.0544342 0.195961 0
0.0865412 0.28259 0
0.0544342 0.195961 0
0.0865412 0.28259 0
0.0514747 0.156226 0
0.0916324 0.250123 0
0.0514747 0.156226 0
0.0916324 0.250123 0
0.0423583 0.110736 0
0.0892483 0.208631 0
0.0423583 0.110736 0
0.0892483 0.208631 0
0.0292185 0.065247 0
0.0775704 0.158951 0
0.0292185 0.065247 0
0.0775704 0.158951 0
0.0170012 0.0291778 0
0.0583294 0.105372 0
0.0170012 0.0291778 0
0.0583294 0.105372 0
0.00776138 0.00813834 0
0.036219 0.0566302 0
0.00776138 0.00813834 0
0.036219 0.0566302 0
0.00922452 -0.000987213 0
0.0214106 0.025076 0
0.00922452 -0.000987213 0
0.0214106 0.025076 0
0.0113119 -0.00343562 0
0.0133312 0.0132801 0
-0.010847 0.00298904 0
-0.0160185 0.00749329 0
-0.0114592 0.00795044 0
-0.0165421 0.0125108 0
-0.0114592 0.00795044 0
-0.0165421 0.0125108 0
-0.0120571 0.0134251 0
-0.0183858 0.0180438 0
-0.0120571 0.0134251 0
-0.0183858 0.0180438 0
-0.0141106 0.0189084 0
-0.0206289 0.0250832 0
-0.0141106 0.0189084 0
-0.0206289 0.0250832 0
-0.0166888 0.0268726 0
-0.0308686 0.0371497 0
-0.0166888 0.0268726 0
-0.0308686 0.0371497 0
-0.0250226 0.0386584 0
-0.0539507 0.0681086 0
-0.0250226 0.0386584 0
-0.0539507 0.0681086 0
-0.0395119 0.0638927 0
-0.0959607 0.127412 0
-0.0395119 0.0638927 0
-0.0959607 0.127412 0
-0.0651304 0.110104 0
-0.124702 0.196792 0
-0.0651304 0.110104 0
-0.124702 0.196792 0
-0.0829446 0.167015 0
-0.139952 0.255635 0
-0.0829446 0.167015 0
-0.139952 0.255635 0
-0.0936294 0.223876 0
-0.129966 0.291842 0
-0.0936294 0.223876 0
-0.129966 0.291842 0
-0.0895621 0.269893 0
-0.112329 0.30472 0
-0.00712011 0.336734 0
-0.00918228 0.315057 0
0.0107511 0.337533 0
0.0102772 0.316882 0
0.0107511 0.337533 0
0.0102772 0.316882 0
0.0287925 0.335906 0
0.0293135 0.318512 0
0.0287925 0.335906 0
0.0293135 0.318512 0
0.045663 0.331028 0
0.0489279 0.319781 0
0.045663 0.331028 0
0.0489279 0.319781 0
0.0622902 0.321789 0
0.0681329 0.320083 0
0.0622902 0.321789 0
0.0681329 0.320083 0
0.0759096 0.306518 0
0.0874501 0.318359 0
0.0759096 0.306518 0
0.0874501 0.318359 0
0.0865412 0.28259 0
0.105106 0.312627 0
0.0865412 0.28259 0
0.105106 0.312627 0
0.0916324 0.250123 0
0.119236 0.299474 0
0.0916324 0.250123 0
0.119236 0.299474 0
0.0892483 0.208631 0
0.127161 0.275975 0
0.0892483 0.208631 0
0.127161 0.275975 0
0.0775704 0.158951 0
0.125661 0.240117 0
0.0775704 0.158951 0
0.125661 0.240117 0
0.0583294 0.105372 0
0.112009 0.192248 0
0.0583294 0.105372 0
0.112009 0.192248 0
0.036219 0.0566302 0
0.0872044 0.136526 0
0.036219 0.0566302 0
0.0872044 0.136526 0
0.0214106 0.025076 0
0.0556243 0.082925 0
0.0214106 0.025076 0
0.0556243 0.082925 0
0.0133312 0.0132801 0
0.0285889 0.0452474 0
-0.0160185 0.00749329 0
-0.0214996 0.0118247 0
-0.0165421 0.0125108 0
-0.0215282 0.0170158 0
-0.0165421 0.0125108 0
-0.0215282 0.0170158 0
-0.0183858 0.0180438 0
-0.0258453 0.0235717 0
-0.0183858 0.0180438 0
-0.0258453 0.0235717 0
-0.0206289 0.0250832 0
-0.0309616 0.0340456 0
-0.0206289 0.0250832 0
-0.0309616 0.0340456 0
-0.0308686 0.0371497 0
-0.0642723 0.0651124 0
-0.0308686 0.0371497 0
-0.0642723 0.0651124 0
-0.0539507 0.0681086 0
-0.118771 0.131923 0
-0.0539507 0.0681086 0
-0.118771 0.131923 0
-0.0959607 0.127412 0
-0.167436 0.208404 0
-0.0959607 0.127412 0
-0.167436 0.208404 0
-0.124702 0.196792 0
-0.177464 0.263152 0
-0.129966 0.291842 0
-0.138836 0.276215 0
-0.112329 0.30472 0
-0.11523 0.275228 0
-0.112329 0.30472 0
-0.11523 0.275228 0
-0.0912975 0.308561 0
-0.0925441 0.275383 0
-0.0912975 0.308561 0
-0.0925441 0.275383 0
-0.0695359 0.309876 0
-0.0713954 0.276955 0
-0.0695359 0.309876 0
-0.0713954 0.276955 0
-0.0488468 0.311176 0
-0.0506992 0.279154 0
-0.0488468 0.311176 0
-0.0506992 0.279154 0
-0.0285063 0.312854 0
-0.0309302 0.281466 0
-0.0285063 0.312854 0
-0.0309302 0.281466 0
-0.00918228 0.315057 0
-0.0111624 0.283437 0
-0.00918228 0.315057 0
-0.0111624 0.283437 0
0.0102772 0.316882 0
0.0083727 0.285182 0
0.0102772 0.316882 0
0.0083727 0.285182 0
0.0293135 0.318512 0
0.0277886 0.286645 0
0.0293135 0.318512 0
0.0277886 0.286645 0
0.0489279 0.319781 0
0.0475066 0.287983 0
0.0489279 0.319781 0
0.0475066 0.287983 0
0.0681329 0.320083 0
0.0673706 0.289501 0
0.0681329 0.320083 0
0.0673706 0.289501 0
0.0874501 0.318359 0
0.0878432 0.291314 0
0.0874501 0.318359 0
0.0878432 0.291314 0
0.105106 0.312627 0
0.108442 0.293094 0
0.105106 0.312627 0
0.108442 0.293094 0
0.119236 0.299474 0
0.128657 0.293431 0
0.119236 0.299474 0
0.128657 0.293431 0
0.127161 0.275975 0
0.145849 0.288935 0
0.127161 0.275975 0
0.145849 0.288935 0
0.125661 0.240117 0
0.156991 0.27505 0
0.125661 0.240117 0
0.156991 0.27505 0
0.112009 0.192248 0
0.156377 0.247547 0
0.112009 0.192248 0
0.156377 0.247547 0
0.0872044 0.136526 0
0.141042 0.205338 0
0.0872044 0.136526 0
0.141042 0.205338 0
0.0556243 0.082925 0
0.108813 0.152068 0
0.0556243 0.082925 0
0.108813 0.152068 0
0.0285889 0.0452474 0
0.0663396 0.0988024 0
0.0285889 0.0452474 0
0.0663396 0.0988024 0
-0.000477956 0.0264922 0
0.0217224 0.057599 0
-0.0214996 0.0118247 0
-0.0271503 0.0155684 0
-0.0215282 0.0170158 0
-0.0271821 0.0216272 0
-0.0215282 0.0170158 0
-0.0271821 0.0216272 0
-0.0258453 0.0235717 0
-0.0341861 0.0289611 0
-0.0258453 0.0235717 0
-0.0341861 0.0289611 0
-0.0309616 0.0340456 0
-0.0580225 0.0538274 0
-0.0309616 0.0340456 0
-0.0580225 0.0538274 0
-0.0642723 0.0651124 0
-0.13485 0.120004 0
-0.0642723 0.0651124 0
-0.13485 0.120004 0
-0.118771 0.131923 0
-0.196061 0.201107 0
-0.160352 0.27149 0
-0.163506 0.247807 0
-0.138836 0.276215 0
-0.138378 0.245763 0
-0.138836 0.276215 0
-0.138378 0.245763 0
-0.11523 0.275228 0
-0.115881 0.246656 0
-0.11523 0.275228 0
-0.115881 0.246656 0
-0.0925441 0.275383 0
-0.0946585 0.249088 0
-0.0925441 0.275383 0
-0.0946585 0.249088 0
-0.0713954 0.276955 0
-0.073826 0.251911 0
-0.0713954 0.276955 0
-0.073826 0.251911 0
-0.0506992 0.279154 0
-0.0533466 0.254653 0
-0.0506992 0.279154 0
-0.0533466 0.254653 0
-0.0309302 0.281466 0
-0.0331297 0.257049 0
-0.0309302 0.281466 0
-0.0331297 0.257049 0
-0.0111624 0.283437 0
-0.0130731 0.259084 0
-0.0111624 0.283437 0
-0.0130731 0.259084 0
0.0083727 0.285182 0
0.00685926 0.260634 0
0.0083727 0.285182 0
0.00685926 0.260634 0
0.0277886 0.286645 0
0.0266031 0.261726 0
0.0277886 0.286645 0
0.0266031 0.261726 0
0.0475066 0.287983 0
0.0465087 0.262409 0
0.0475066 0.287983 0
0.0465087 0.262409 0
0.0673706 0.289501 0
0.0662561 0.262798 0
0.0673706 0.289501 0
0.0662561 0.262798 0
0.0878432 0.291314 0
0.0864956 0.263229 0
0.0878432 0.291314 0
0.0864956 0.263229 0
0.108442 0.293094 0
0.106838 0.264137 0
0.108442 0.293094 0
0.106838 0.264137 0
0.128657 0.293431 0
0.127894 0.265903 0
0.128657 0.293431 0
0.127894 0.265903 0
0.145849 0.288935 0
0.148836 0.267987 0
0.145849 0.288935 0
0.148836 0.267987 0
0.156991 0.27505 0
0.168064 0.267744 0
0.156991 0.27505 0
0.168064 0.267744 0
0.156377 0.247547 0
0.180737 0.259944 0
0.156377 0.247547 0
0.180737 0.259944 0
0.141042 0.205338 0
0.180184 0.23884 0
0.141042 0.205338 0
0.180184 0.23884 0
0.108813 0.152068 0
0.1605 0.201509 0
0.108813 0.152068 0
0.1605 0.201509 0
0.0663396 0.0988024 0
0.118186 0.151315 0
0.0663396 0.0988024 0
0.118186 0.151315 0
0.0217224 0.057599 0
0.0635332 0.098821 0
-0.207567 0.239381 0
-0.213062 0.222376 0
-0.187002 0.247032 0
-0.186862 0.220111 0
-0.187002 0.247032 0
-0.186862 0.220111 0
-0.163506 0.247807 0
-0.161977 0.217679 0
-0.163506 0.247807 0
-0.161977 0.217679 0
-0.138378 0.245763 0
-0.139803 0.219572 0
-0.138378 0.245763 0
-0.139803 0.219572 0
-0.115881 0.246656 0
-0.118615 0.222748 0
-0.115881 0.246656 0
-0.118615 0.222748 0
-0.0946585 0.249088 0
-0.0974889 0.22579 0
-0.0946585 0.249088 0
-0.0974889 0.22579 0
-0.073826 0.251911 0
-0.0765382 0.228431 0
-0.073826 0.251911 0
-0.0765382 0.228431 0
-0.0533466 0.254653 0
-0.0557195 0.230696 0
-0.0533466 0.254653 0
-0.0557195 0.230696 0
-0.0331297 0.257049 0
-0.0352363 0.232693 0
-0.0331297 0.257049 0
-0.0352363 0.232693 0
-0.0130731 0.259084 0
-0.014793 0.23442 0
-0.0130731 0.259084 0
-0.014793 0.23442 0
0.00685926 0.260634 0
0.00544798 0.235907 0
0.00685926 0.260634 0
0.00544798 0.235907 0
0.0266031 0.261726 0
0.0256232 0.237118 0
0.0266031 0.261726 0
0.0256232 0.237118 0
0.0465087 0.262409 0
0.0457899 0.23803 0
0.0465087 0.262409 0
0.0457899 0.23803 0
0.0662561 0.262798 0
0.0659093 0.238605 0
0.0662561 0.262798 0
0.0659093 0.238605 0
0.0864956 0.263229 0
0.0860748 0.238828 0
0.0864956 0.263229 0
0.0860748 0.238828 0
0.106838 0.264137 0
0.106237 0.238807 0
0.106838 0.264137 0
0.106237 0.238807 0
0.127894 0.265903 0
0.126414 0.238933 0
0.127894 0.265903 0
0.126414 0.238933 0
0.148836 0.267987 0
0.147137 0.239841 0
0.148836 0.267987 0
0.147137 0.239841 0
0.168064 0.267744 0
0.167939 0.241699 0
0.168064 0.267744 0
0.167939 0.241699 0
0.180737 0.259944 0
0.187747 0.242529 0
0.180737 0.259944 0
0.187747 0.242529 0
0.180184 0.23884 0
0.199932 0.236885 0
0.180184 0.23884 0
0.199932 0.236885 0
0.1605 0.201509 0
0.197146 0.217966 0
0.1605 0.201509 0
0.197146 0.217966 0
0.118186 0.151315 0
0.168318 0.181562 0
0.118186 0.151315 0
0.168318 0.181562 0
0.0635332 0.098821 0
0.116045 0.131352 0
-0.234258 0.216351 0
-0.23911 0.196994 0
-0.213062 0.222376 0
-0.210704 0.193483 0
-0.213062 0.222376 0
-0.210704 0.193483 0
-0.186862 0.220111 0
-0.185607 0.191949 0
-0.186862 0.220111 0
-0.185607 0.191949 0
-0.161977 0.217679 0
-0.164214 0.195161 0
-0.161977 0.217679 0
-0.164214 0.195161 0
-0.139803 0.219572 0
-0.142737 0.198332 0
-0.139803 0.219572 0
-0.142737 0.198332 0
-0.118615 0.222748 0
-0.12123 0.200611 0
-0.118615 0.222748 0
-0.12123 0.200611 0
-0.0974889 0.22579 0
-0.0998353 0.202485 0
-0.0974889 0.22579 0
-0.0998353 0.202485 0
-0.0765382 0.228431 0
-0.0786669 0.204294 0
-0.0765382 0.228431 0
-0.0786669 0.204294 0
-0.0557195 0.230696 0
-0.0577111 0.206119 0
-0.0557195 0.230696 0
-0.0577111 0.206119 0
-0.0352363 0.232693 0
-0.03704 0.207887 0
-0.0352363 0.232693 0
-0.03704 0.207887 0
-0.014793 0.23442 0
-0.0163714 0.209521 0
-0.014793 0.23442 0
-0.0163714 0.209521 0
0.00544798 0.235907 0
0.00405736 0.21096 0
0.00544798 0.235907 0
0.00405736 0.21096 0
0.0256232 0.237118 0
0.0245463 0.212179 0
0.0256232 0.237118 0
0.0245463 0.212179 0
0.0457899 0.23803 0
0.0449051 0.213172 0
0.0457899 0.23803 0
0.0449051 0.213172 0
0.0659093 0.238605 0
0.0653984 0.213945 0
0.0659093 0.238605 0
0.0653984 0.213945 0
0.0860748 0.238828 0
0.0857884 0.214464 0
0.0860748 0.238828 0
0.0857884 0.214464 0
0.106237 0.238807 0
0.106287 0.214663 0
0.106237 0.238807 0
0.106287 0.214663 0
0.126414 0.238933 0
0.126361 0.214454 0
0.126414 0.238933 0
0.126361 0.214454 0
0.147137 0.239841 0
0.146591 0.21405 0
0.147137 0.239841 0
0.146591 0.21405 0
0.167939 0.241699 0
0.166543 0.213993 0
0.167939 0.241699 0
0.166543 0.213993 0
0.187747 0.242529 0
0.187377 0.214789 0
0.187747 0.242529 0
0.187377 0.214789 0
0.199932 0.236885 0
0.206167 0.214485 0
0.199932 0.236885 0
0.206167 0.214485 0
0.197146 0.217966 0
0.217003 0.207309 0
0.197146 0.217966 0
0.217003 0.207309 0
0.168318 0.181562 0
0.206959 0.185445 0
0.168318 0.181562 0
0.206959 0.185445 0
0.116045 0.131352 0
0.167679 0.14533 0
-0.258441 0.189123 0
-0.265499 0.172908 0
-0.23911 0.196994 0
-0.235697 0.168726 0
-0.23911 0.196994 0
-0.235697 0.168726 0
-0.210704 0.193483 0
-0.20965 0.167684 0
-0.210704 0.193483 0
-0.20965 0.167684 0
-0.185607 0.191949 0
-0.188202 0.170678 0
-0.185607 0.191949 0
-0.188202 0.170678 0
-0.164214 0.195161 0
-0.166741 0.172671 0
-0.164214 0.195161 0
-0.166741 0.172671 0
-0.142737 0.198332 0
-0.144835 0.174209 0
-0.142737 0.198332 0
-0.144835 0.174209 0
-0.12123 0.200611 0
-0.123167 0.175981 0
-0.12123 0.200611 0
-0.123167 0.175981 0
-0.0998353 0.202485 0
-0.101766 0.177974 0
-0.0998353 0.202485 0
-0.101766 0.177974 0
-0.0786669 0.204294 0
-0.0805721 0.179993 0
-0.0786669 0.204294 0
-0.0805721 0.179993 0
-0.0577111 0.206119 0
-0.059555 0.181897 0
-0.0577111 0.206119 0
-0.059555 0.181897 0
-0.03704 0.207887 0
-0.0387183 0.183638 0
-0.03704 0.207887 0
-0.0387183 0.183638 0
-0.0163714 0.209521 0
-0.0178977 0.185198 0
-0.0163714 0.209521 0
-0.0178977 0.185198 0
0.00405736 0.21096 0
0.00275423 0.186568 0
0.00405736 0.21096 0
0.00275423 0.186568 0
0.0245463 0.212179 0
0.023445 0.187733 0
0.0245463 0.212179 0
0.023445 0.187733 0
0.0449051 0.213172 0
0.0440407 0.188676 0
0.0449051 0.213172 0
0.0440407 0.188676 0
0.0653984 0.213945 0
0.0647409 0.189396 0
0.0653984 0.213945 0
0.0647409 0.189396 0
0.0857884 0.214464 0
0.0854054 0.189889 0
0.0857884 0.214464 0
0.0854054 0.189889 0
0.106287 0.214663 0
0.106173 0.190148 0
0.106287 0.214663 0
0.106173 0.190148 0
0.126361 0.214454 0
0.126728 0.190068 0
0.126361 0.214454 0
0.126728 0.190068 0
0.146591 0.21405 0
0.147167 0.189484 0
0.146591 0.21405 0
0.147167 0.189484 0
0.166543 0.213993 0
0.167089 0.188372 0
0.166543 0.213993 0
0.167089 0.188372 0
0.187377 0.214789 0
0.187144 0.187169 0
0.187377 0.214789 0
0.187144 0.187169 0
0.206167 0.214485 0
0.207619 0.186191 0
0.206167 0.214485 0
0.207619 0.186191 0
0.217003 0.207309 0
0.225888 0.182952 0
0.217003 0.207309 0
0.225888 0.182952 0
0.206959 0.185445 0
0.232485 0.170624 0
0.206959 0.185445 0
0.232485 0.170624 0
0.167679 0.14533 0
0.211106 0.141795 0
-0.265499 0.172908 0
-0.262817 0.145035 0
-0.235697 0.168726 0
-0.234237 0.144667 0
-0.235697 0.168726 0
-0.234237 0.144667 0
-0.20965 0.167684 0
-0.211829 0.146225 0
-0.20965 0.167684 0
-0.211829 0.146225 0
-0.188202 0.170678 0
-0.190349 0.147482 0
-0.188202 0.170678 0
-0.190349 0.147482 0
-0.166741 0.172671 0
-0.168561 0.149394 0
-0.166741 0.172671 0
-0.168561 0.149394 0
-0.144835 0.174209 0
-0.146639 0.151402 0
-0.144835 0.174209 0
-0.146639 0.151402 0
-0.123167 0.175981 0
-0.124996 0.15319 0
-0.123167 0.175981 0
-0.124996 0.15319 0
-0.101766 0.177974 0
-0.103592 0.154826 0
-0.101766 0.177974 0
-0.103592 0.154826 0
-0.0805721 0.179993 0
-0.0823297 0.156392 0
-0.0805721 0.179993 0
-0.0823297 0.156392 0
-0.059555 0.181897 0
-0.0612514 0.157943 0
-0.059555 0.181897 0
-0.0612514 0.157943 0
-0.0387183 0.183638 0
-0.0402727 0.159465 0
-0.0387183 0.183638 0
-0.0402727 0.159465 0
-0.0178977 0.185198 0
-0.0193478 0.16092 0
-0.0178977 0.185198 0
-0.0193478 0.16092 0
0.00275423 0.186568 0
0.00149961 0.16226 0
0.00275423 0.186568 0
0.00149961 0.16226 0
0.023445 0.187733 0
0.0223469 0.16345 0
0.023445 0.187733 0
0.0223469 0.16345 0
0.0440407 0.188676 0
0.0431943 0.164454 0
0.0440407 0.188676 0
0.0431943 0.164454 0
0.0647409 0.189396 0
0.0640869 0.165234 0
0.0647409 0.189396 0
0.0640869 0.165234 0
0.0854054 0.189889 0
0.0850569 0.165749 0
0.0854054 0.189889 0
0.0850569 0.165749 0
0.106173 0.190148 0
0.106044 0.165957 0
0.106173 0.190148 0
0.106044 0.165957 0
0.126728 0.190068 0
0.127075 0.165816 0
0.126728 0.190068 0
0.127075 0.165816 0
0.147167 0.189484 0
0.148008 0.165193 0
0.147167 0.189484 0
0.148008 0.165193 0
0.167089 0.188372 0
0.168715 0.163839 0
0.167089 0.188372 0
0.168715 0.163839 0
0.187144 0.187169 0
0.18889 0.16163 0
0.187144 0.187169 0
0.18889 0.16163 0
0.207619 0.186191 0
0.209589 0.158874 0
0.207619 0.186191 0
0.209589 0.158874 0
0.225888 0.182952 0
0.230581 0.155374 0
0.225888 0.182952 0
0.230581 0.155374 0
0.232485 0.170624 0
0.248356 0.147314 0
0.232485 0.170624 0
0.248356 0.147314 0
0.211106 0.141795 0
0.244336 0.12713 0
-0.291926 0.145553 0
-0.292663 0.12284 0
-0.262817 0.145035 0
-0.260577 0.12174 0
-0.262817 0.145035 0
-0.260577 0.12174 0
-0.234237 0.144667 0
-0.235081 0.120701 0
-0.234237 0.144667 0
-0.235081 0.120701 0
-0.211829 0.146225 0
-0.213988 0.122218 0
-0.211829 0.146225 0
-0.213988 0.122218 0
-0.190349 0.147482 0
-0.192247 0.124988 0
-0.190349 0.147482 0
-0.192247 0.124988 0
-0.168561 0.149394 0
-0.170122 0.126557 0
-0.168561 0.149394 0
-0.170122 0.126557 0
-0.146639 0.151402 0
-0.148215 0.127715 0
-0.146639 0.151402 0
-0.148215 0.127715 0
-0.124996 0.15319 0
-0.126604 0.129111 0
-0.124996 0.15319 0
-0.126604 0.129111 0
-0.103592 0.154826 0
-0.105188 0.130679 0
-0.103592 0.154826 0
-0.105188 0.130679 0
-0.0823297 0.156392 0
-0.0839337 0.13231 0
-0.0823297 0.156392 0
-0.0839337 0.13231 0
-0.0612514 0.157943 0
-0.0628197 0.133917 0
-0.0612514 0.157943 0
-0.0628197 0.133917 0
-0.0402727 0.159465 0
-0.0417632 0.135447 0
-0.0402727 0.159465 0
-0.0417632 0.135447 0
-0.0193478 0.16092 0
-0.0207502 0.136879 0
-0.0193478 0.16092 0
-0.0207502 0.136879 0
0.00149961 0.16226 0
0.000237761 0.138194 0
0.00149961 0.16226 0
0.000237761 0.138194 0
0.0223469 0.16345 0
0.0212294 0.139373 0
0.0223469 0.16345 0
0.0212294 0.139373 0
0.0431943 0.164454 0
0.0422855 0.140387 0
0.0431943 0.164454 0
0.0422855 0.140387 0
0.0640869 0.165234 0
0.0633899 0.141203 0
0.0640869 0.165234 0
0.0633899 0.141203 0
0.0850569 0.165749 0
0.0846628 0.141778 0
0.0850569 0.165749 0
0.0846628 0.141778 0
0.106044 0.165957 0
0.105953 0.142043 0
0.106044 0.165957 0
0.105953 0.142043 0
0.127075 0.165816 0
0.12744 0.141913 0
0.127075 0.165816 0
0.12744 0.141913 0
0.148008 0.165193 0
0.148895 0.141277 0
0.148008 0.165193 0
0.148895 0.141277 0
0.168715 0.163839 0
0.170548 0.139923 0
0.168715 0.163839 0
0.170548 0.139923 0
0.18889 0.16163 0
0.191686 0.137495 0
0.18889 0.16163 0
0.191686 0.137495 0
0.209589 0.158874 0
0.213131 0.13393 0
0.209589 0.158874 0
0.213131 0.13393 0
0.230581 0.155374 0
0.235065 0.129369 0
0.230581 0.155374 0
0.235065 0.129369 0
0.248356 0.147314 0
0.258855 0.122573 0
0.248356 0.147314 0
0.258855 0.122573 0
0.244336 0.12713 0
0.268813 0.107936 0
-0.292663 0.12284 0
-0.291261 0.0984728 0
-0.260577 0.12174 0
-0.259541 0.096973 0
-0.260577 0.12174 0
-0.259541 0.096973 0