# vtk DataFile Version 3.0
#This file was generated by the deal.II library on 2026/3/25 at 11:19:37
ASCII
DATASET UNSTRUCTURED_GRID

POINTS 4096 double
0 0 0
0.03125 0 0
0 0.03125 0
0.03125 0.03125 0
0 0.03125 0
0.03125 0.03125 0
0 0.0625 0
0.03125 0.0625 0
0 0.0625 0
0.03125 0.0625 0
0 0.09375 0
0.03125 0.09375 0
0 0.09375 0
0.03125 0.09375 0
0 0.125 0
0.03125 0.125 0
0 0.125 0
0.03125 0.125 0
0 0.15625 0
0.03125 0.15625 0
0 0.15625 0
0.03125 0.15625 0
0 0.1875 0
0.03125 0.1875 0
0 0.1875 0
0.03125 0.1875 0
0 0.21875 0
0.03125 0.21875 0
0 0.21875 0
0.03125 0.21875 0
0 0.25 0
0.03125 0.25 0
0 0.25 0
0.03125 0.25 0
0 0.28125 0
0.03125 0.28125 0
0 0.28125 0
0.03125 0.28125 0
0 0.3125 0
0.03125 0.3125 0
0 0.3125 0
0.03125 0.3125 0
0 0.34375 0
0.03125 0.34375 0
0 0.34375 0
0.03125 0.34375 0
0 0.375 0
0.03125 0.375 0
0 0.375 0
0.03125 0.375 0
0 0.40625 0
0.03125 0.40625 0
0 0.40625 0
0.03125 0.40625 0
0 0.4375 0
0.03125 0.4375 0
0 0.4375 0
0.03125 0.4375 0
0 0.46875 0
0.03125 0.46875 0
0 0.46875 0
0.03125 0.46875 0
0 0.5 0
0.03125 0.5 0
0 0.5 0
0.03125 0.5 0
0 0.53125 0
0.03125 0.53125 0
0 0.53125 0
0.03125 0.53125 0
0 0.5625 0
0.03125 0.5625 0
0 0.5625 0
0.03125 0.5625 0
0 0.59375 0
0.03125 0.59375 0
0 0.59375 0
0.03125 0.59375 0
0 0.625 0
0.03125 0.625 0
0 0.625 0
0.03125 0.625 0
0 0.65625 0
0.03125 0.65625 0
0 0.65625 0
0.03125 0.65625 0
0 0.6875 0
0.03125 0.6875 0
0 0.6875 0
0.03125 0.6875 0
0 0.71875 0
0.03125 0.71875 0
0 0.71875 0
0.03125 0.71875 0
0 0.75 0
0.03125 0.75 0
0 0.75 0
0.03125 0.75 0
0 0.78125 0
0.03125 0.78125 0
0 0.78125 0
0.03125 0.78125 0
0 0.8125 0
0.03125 0.8125 0
0 0.8125 0
0.03125 0.8125 0
0 0.84375 0
0.03125 0.84375 0
0 0.84375 0
0.03125 0.84375 0
0 0.875 0
0.03125 0.875 0
0 0.875 0
0.03125 0.875 0
0 0.90625 0
0.03125 0.90625 0
0 0.90625 0
0.03125 0.90625 0
0 0.9375 0
0.03125 0.9375 0
0 0.9375 0
0.03125 0.9375 0
0 0.96875 0
0.03125 0.96875 0
0 0.96875 0
0.03125 0.96875 0
0 1 0
0.03125 1 0
0.03125 0 0
0.0625 0 0
0.03125 0.03125 0
0.0625 0.03125 0
0.03125 0.03125 0
0.0625 0.03125 0
0.03125 0.0625 0
0.0625 0.0625 0
0.03125 0.0625 0
0.0625 0.0625 0
0.03125 0.09375 0
0.0625 0.09375 0
0.03125 0.09375 0
0.0625 0.09375 0
0.03125 0.125 0
0.0625 0.125 0
0.03125 0.125 0
0.0625 0.125 0
0.03125 0.15625 0
0.0625 0.15625 0
0.03125 0.15625 0
0.0625 0.15625 0
0.03125 0.1875 0
0.0625 0.1875 0
0.03125 0.1875 0
0.0625 0.1875 0
0.03125 0.21875 0
0.0625 0.21875 0
0.03125 0.21875 0
0.0625 0.21875 0
0.03125 0.25 0
0.0625 0.25 0
0.03125 0.25 0
0.0625 0.25 0
0.03125 0.28125 0
0.0625 0.28125 0
0.03125 0.28125 0
0.0625 0.28125 0
0.03125 0.3125 0
0.0625 0.3125 0
0.03125 0.3125 0
0.0625 0.3125 0
0.03125 0.34375 0
0.0625 0.34375 0
0.03125 0.34375 0
0.0625 0.34375 0
0.03125 0.375 0
0.0625 0.375 0
0.03125 0.375 0
0.0625 0.375 0
0.03125 0.40625 0
0.0625 0.40625 0
0.03125 0.40625 0
0.0625 0.40625 0
0.03125 0.4375 0
0.0625 0.4375 0
0.03125 0.4375 0
0.0625 0.4375 0
0.03125 0.46875 0
0.0625 0.46875 0
0.03125 0.46875 0
0.0625 0.46875 0
0.03125 0.5 0
0.0625 0.5 0
0.03125 0.5 0
0.0625 0.5 0
0.03125 0.53125 0
0.0625 0.53125 0
0.03125 0.53125 0
0.0625 0.53125 0
0.03125 0.5625 0
0.0625 0.5625 0
0.03125 0.5625 0
0.0625 0.5625 0
0.03125 0.59375 0
0.0625 0.59375 0
0.03125 0.59375 0
0.0625 0.59375 0
0.03125 0.625 0
0.0625 0.625 0
0.03125 0.625 0
0.0625 0.625 0
0.03125 0.65625 0
0.0625 0.65625 0
0.03125 0.65625 0
0.0625 0.65625 0
0.03125 0.6875 0
0.0625 0.6875 0
0.03125 0.6875 0
0.0625 0.6875 0
0.03125 0.71875 0
0.0625 0.71875 0
0.03125 0.71875 0
0.0625 0.71875 0
0.03125 0.75 0
0.0625 0.75 0
0.03125 0.75 0
0.0625 0.75 0
0.03125 0.78125 0
0.0625 0.78125 0
0.03125 0.78125 0
0.0625 0.78125 0
0.03125 0.8125 0
0.0625 0.8125 0
0.03125 0.8125 0
0.0625 0.8125 0
0.03125 0.84375 0
0.0625 0.84375 0
0.03125 0.84375 0
0.0625 0.84375 0
0.03125 0.875 0
0.0625 0.875 0
0.03125 0.875 0
0.0625 0.875 0
0.03125 0.90625 0
0.0625 0.90625 0
0.03125 0.90625 0
0.0625 0.90625 0
0.03125 0.9375 0
0.0625 0.9375 0
0.03125 0.9375 0
0.0625 0.9375 0
0.03125 0.96875 0
0.0625 0.96875 0
0.03125 0.96875 0
0.0625 0.96875 0
0.03125 1 0
0.0625 1 0
0.0625 0 0
0.09375 0 0
0.0625 0.03125 0
0.09375 0.03125 0
0.0625 0.03125 0
0.09375 0.03125 0
0.0625 0.0625 0
0.09375 0.0625 0
0.0625 0.0625 0
0.09375 0.0625 0
0.0625 0.09375 0
0.09375 0.09375 0
0.0625 0.09375 0
0.09375 0.09375 0
0.0625 0.125 0
0.09375 0.125 0
0.0625 0.125 0
0.09375 0.125 0
0.0625 0.15625 0
0.09375 0.15625 0
0.0625 0.15625 0
0.09375 0.15625 0
0.0625 0.1875 0
0.09375 0.1875 0
0.0625 0.1875 0
0.09375 0.1875 0
0.0625 0.21875 0
0.09375 0.21875 0
0.0625 0.21875 0
0.09375 0.21875 0
0.0625 0.25 0
0.09375 0.25 0
0.0625 0.25 0
0.09375 0.25 0
0.0625 0.28125 0
0.09375 0.28125 0
0.0625 0.28125 0
0.09375 0.28125 0
0.0625 0.3125 0
0.09375 0.3125 0
0.0625 0.3125 0
0.09375 0.3125 0
0.0625 0.34375 0
0.09375 0.34375 0
0.0625 0.34375 0
0.09375 0.34375 0
0.0625 0.375 0
0.09375 0.375 0
0.0625 0.375 0
0.09375 0.375 0
0.0625 0.40625 0
0.09375 0.40625 0
0.0625 0.40625 0
0.09375 0.40625 0
0.0625 0.4375 0
0.09375 0.4375 0
0.0625 0.4375 0
0.09375 0.4375 0
0.0625 0.46875 0
0.09375 0.46875 0
0.0625 0.46875 0
0.09375 0.46875 0
0.0625 0.5 0
0.09375 0.5 0
0.0625 0.5 0
0.09375 0.5 0
0.0625 0.53125 0
0.09375 0.53125 0
0.0625 0.53125 0
0.09375 0.53125 0
0.0625 0.5625 0
0.09375 0.5625 0
0.0625 0.5625 0
0.09375 0.5625 0
0.0625 0.59375 0
0.09375 0.59375 0
0.0625 0.59375 0
0.09375 0.59375 0
0.0625 0.625 0
0.09375 0.625 0
0.0625 0.625 0
0.09375 0.625 0
0.0625 0.65625 0
0.09375 0.65625 0
0.0625 0.65625 0
0.09375 0.65625 0
0.0625 0.6875 0
0.09375 0.6875 0
0.0625 0.6875 0
0.09375 0.6875 0
0.0625 0.71875 0
0.09375 0.71875 0
0.0625 0.71875 0
0.09375 0.71875 0
0.0625 0.75 0
0.09375 0.75 0
0.0625 0.75 0
0.09375 0.75 0
0.0625 0.78125 0
0.09375 0.78125 0
0.0625 0.78125 0
0.09375 0.78125 0
0.0625 0.8125 0
0.09375 0.8125 0
0.0625 0.8125 0
0.09375 0.8125 0
0.0625 0.84375 0
0.09375 0.84375 0
0.0625 0.84375 0
0.09375 0.84375 0
0.0625 0.875 0
0.09375 0.875 0
0.0625 0.875 0
0.09375 0.875 0
0.0625 0.90625 0
0.09375 0.90625 0
0.0625 0.90625 0
0.09375 0.90625 0
0.0625 0.9375 0
0.09375 0.9375 0
0.0625 0.9375 0
0.09375 0.9375 0
0.0625 0.96875 0
0.09375 0.96875 0
0.0625 0.96875 0
0.09375 0.96875 0
0.0625 1 0
0.09375 1 0
0.09375 0 0
0.125 0 0
0.09375 0.03125 0
0.125 0.03125 0
0.09375 0.03125 0
0.125 0.03125 0
0.09375 0.0625 0
0.125 0.0625 0
0.09375 0.0625 0
0.125 0.0625 0
0.09375 0.09375 0
0.125 0.09375 0
0.09375 0.09375 0
0.125 0.09375 0
0.09375 0.125 0
0.125 0.125 0
0.09375 0.125 0
0.125 0.125 0
0.09375 0.15625 0
0.125 0.15625 0
0.09375 0.15625 0
0.125 0.15625 0
0.09375 0.1875 0
0.125 0.1875 0
0.09375 0.1875 0
0.125 0.1875 0
0.09375 0.21875 0
0.125 0.21875 0
0.09375 0.21875 0
0.125 0.21875 0
0.09375 0.25 0
0.125 0.25 0
0.09375 0.25 0
0.125 0.25 0
0.09375 0.28125 0
0.125 0.28125 0
0.09375 0.28125 0
0.125 0.28125 0
0.09375 0.3125 0
0.125 0.3125 0
0.09375 0.3125 0
0.125 0.3125 0
0.09375 0.34375 0
0.125 0.34375 0
0.09375 0.34375 0
0.125 0.34375 0
0.09375 0.375 0
0.125 0.375 0
0.09375 0.375 0
0.125 0.375 0
0.09375 0.40625 0
0.125 0.40625 0
0.09375 0.40625 0
0.125 0.40625 0
0.09375 0.4375 0
0.125 0.4375 0
0.09375 0.4375 0
0.125 0.4375 0
0.09375 0.46875 0
0.125 0.46875 0
0.09375 0.46875 0
0.125 0.46875 0
0.09375 0.5 0
0.125 0.5 0
0.09375 0.5 0
0.125 0.5 0
0.09375 0.53125 0
0.125 0.53125 0
0.09375 0.53125 0
0.125 0.53125 0
0.09375 0.5625 0
0.125 0.5625 0
0.09375 0.5625 0
0.125 0.5625 0
0.09375 0.59375 0
0.125 0.59375 0
0.09375 0.59375 0
0.125 0.59375 0
0.09375 0.625 0
0.125 0.625 0
0.09375 0.625 0
0.125 0.625 0
0.09375 0.65625 0
0.125 0.65625 0
0.09375 0.65625 0
0.125 0.65625 0
0.09375 0.6875 0
0.125 0.6875 0
0.09375 0.6875 0
0.125 0.6875 0
0.09375 0.71875 0
0.125 0.71875 0
0.09375 0.71875 0
0.125 0.71875 0
0.09375 0.75 0
0.125 0.75 0
0.09375 0.75 0
0.125 0.75 0
0.09375 0.78125 0
0.125 0.78125 0
0.09375 0.78125 0
0.125 0.78125 0
0.09375 0.8125 0
0.125 0.8125 0
0.09375 0.8125 0
0.125 0.8125 0
0.09375 0.84375 0
0.125 0.84375 0
0.09375 0.84375 0
0.125 0.84375 0
0.09375 0.875 0
0.125 0.875 0
0.09375 0.875 0
0.125 0.875 0
0.09375 0.90625 0
0.125 0.90625 0
0.09375 0.90625 0
0.125 0.90625 0
0.09375 0.9375 0
0.125 0.9375 0
0.09375 0.9375 0
0.125 0.9375 0
0.09375 0.96875 0
0.125 0.96875 0
0.09375 0.96875 0
0.125 0.96875 0
0.09375 1 0
0.125 1 0
0.125 0 0
0.15625 0 0
0.125 0.03125 0
0.15625 0.03125 0
0.125 0.03125 0
0.15625 0.03125 0
0.125 0.0625 0
0.15625 0.0625 0
0.125 0.0625 0
0.15625 0.0625 0
0.125 0.09375 0
0.15625 0.09375 0
0.125 0.09375 0
0.15625 0.09375 0
0.125 0.125 0
0.15625 0.125 0
0.125 0.125 0
0.15625 0.125 0
0.125 0.15625 0
0.15625 0.15625 0
0.125 0.15625 0
0.15625 0.15625 0
0.125 0.1875 0
0.15625 0.1875 0
0.125 0.1875 0
0.15625 0.1875 0
0.125 0.21875 0
0.15625 0.21875 0
0.125 0.21875 0
0.15625 0.21875 0
0.125 0.25 0
0.15625 0.25 0
0.125 0.25 0
0.15625 0.25 0
0.125 0.28125 0
0.15625 0.28125 0
0.125 0.28125 0
0.15625 0.28125 0
0.125 0.3125 0
0.15625 0.3125 0
0.125 0.3125 0
0.15625 0.3125 0
0.125 0.34375 0
0.15625 0.34375 0
0.125 0.34375 0
0.15625 0.34375 0
0.125 0.375 0
0.15625 0.375 0
0.125 0.375 0
0.15625 0.375 0
0.125 0.40625 0
0.15625 0.40625 0
0.125 0.40625 0
0.15625 0.40625 0
0.125 0.4375 0
0.15625 0.4375 0
0.125 0.4375 0
0.15625 0.4375 0
0.125 0.46875 0
0.15625 0.46875 0
0.125 0.46875 0
0.15625 0.46875 0
0.125 0.5 0
0.15625 0.5 0
0.125 0.5 0
0.15625 0.5 0
0.125 0.53125 0
0.15625 0.53125 0
0.125 0.53125 0
0.15625 0.53125 0
0.125 0.5625 0
0.15625 0.5625 0
0.125 0.5625 0
0.15625 0.5625 0
0.125 0.59375 0
0.15625 0.59375 0
0.125 0.59375 0
0.15625 0.59375 0
0.125 0.625 0
0.15625 0.625 0
0.125 0.625 0
0.15625 0.625 0
0.125 0.65625 0
0.15625 0.65625 0
0.125 0.65625 0
0.15625 0.65625 0
0.125 0.6875 0
0.15625 0.6875 0
0.125 0.6875 0
0.15625 0.6875 0
0.125 0.71875 0
0.15625 0.71875 0
0.125 0.71875 0
0.15625 0.71875 0
0.125 0.75 0
0.15625 0.75 0
0.125 0.75 0
0.15625 0.75 0
0.125 0.78125 0
0.15625 0.78125 0
0.125 0.78125 0
0.15625 0.78125 0
0.125 0.8125 0
0.15625 0.8125 0
0.125 0.8125 0
0.15625 0.8125 0
0.125 0.84375 0
0.15625 0.84375 0
0.125 0.84375 0
0.15625 0.84375 0
0.125 0.875 0
[...]
POINT_DATA 4096
VECTORS velocity double
0 0 0
-0.00206512 -0.00349075 0
0 0 0
-0.00229958 0.000479949 0
0 0 0
-0.00229958 0.000479949 0
0 0 0
-0.00257436 0.00455706 0
0 0 0
-0.00257436 0.00455706 0
0 0 0
-0.00295643 0.00919223 0
0 0 0
-0.00295643 0.00919223 0
0 0 0
-0.00356156 0.0147822 0
0 0 0
-0.00356156 0.0147822 0
0 0 0
-0.00452405 0.0219226 0
0 0 0
-0.00452405 0.0219226 0
0 0 0
-0.00580483 0.031302 0
0 0 0
-0.00580483 0.031302 0
0 0 0
-0.00742684 0.0435995 0
0 0 0
-0.00742684 0.0435995 0
0 0 0
-0.00919877 0.0593434 0
0 0 0
-0.00919877 0.0593434 0
0 0 0
-0.010627 0.0783952 0
0 0 0
-0.010627 0.0783952 0
0 0 0
-0.011161 0.0995864 0
0 0 0
-0.011161 0.0995864 0
0 0 0
-0.0104172 0.120816 0
0 0 0
-0.0104172 0.120816 0
0 0 0
-0.00861843 0.139807 0
0 0 0
-0.00861843 0.139807 0
0 0 0
-0.00591003 0.154613 0
0 0 0
-0.00591003 0.154613 0
0 0 0
-0.00281415 0.16391 0
0 0 0
-0.00281415 0.16391 0
0 0 0
0.000611444 0.166912 0
0 0 0
0.000611444 0.166912 0
0 0 0
0.0039166 0.163307 0
0 0 0
0.0039166 0.163307 0
0 0 0
0.00720332 0.153128 0
0 0 0
0.00720332 0.153128 0
0 0 0
0.0099552 0.136826 0
0 0 0
0.0099552 0.136826 0
0 0 0
0.0122612 0.11532 0
0 0 0
0.0122612 0.11532 0
0 0 0
0.0133522 0.0902431 0
0 0 0
0.0133522 0.0902431 0
0 0 0
0.013326 0.0639445 0
0 0 0
0.013326 0.0639445 0
0 0 0
0.0114059 0.0394695 0
0 0 0
0.0114059 0.0394695 0
0 0 0
0.00846991 0.0197539 0
0 0 0
0.00846991 0.0197539 0
0 0 0
0.00474548 0.00662196 0
0 0 0
0.00474548 0.00662196 0
0 0 0
0.00266787 -0.000792902 0
0 0 0
0.00266787 -0.000792902 0
0 0 0
0.00112809 -0.00465835 0
0 0 0
0.00112809 -0.00465835 0
0 0 0
-0.000861414 -0.00505782 0
0 0 0
-0.000861414 -0.00505782 0
0 0 0
-0.00556364 0.00112669 0
0 0 0
-0.00556364 0.00112669 0
0 0 0
0.0230454 -0.0167384 0
0 0 0
0.0230454 -0.0167384 0
0 0 0
-0.0831477 0.0423045 0
0 0 0
-0.0831477 0.0423045 0
0 0 0
0.054218 0.0736188 0
0 0 0
0.054218 0.0736188 0
1 0 0
1 0 0
-0.00206512 -0.00349075 0
-0.00623399 -0.000953614 0
-0.00229958 0.000479949 0
-0.00656092 0.00384902 0
-0.00229958 0.000479949 0
-0.00656092 0.00384902 0
-0.00257436 0.00455706 0
-0.00737903 0.00919741 0
-0.00257436 0.00455706 0
-0.00737903 0.00919741 0
-0.00295643 0.00919223 0
-0.00847884 0.0151195 0
-0.00295643 0.00919223 0
-0.00847884 0.0151195 0
-0.00356156 0.0147822 0
-0.0104547 0.0221765 0
-0.00356156 0.0147822 0
-0.0104547 0.0221765 0
-0.00452405 0.0219226 0
-0.0136682 0.0313067 0
-0.00452405 0.0219226 0
-0.0136682 0.0313067 0
-0.00580483 0.031302 0
-0.0186282 0.0441369 0
-0.00580483 0.031302 0
-0.0186282 0.0441369 0
-0.00742684 0.0435995 0
-0.0252918 0.0627682 0
-0.00742684 0.0435995 0
-0.0252918 0.0627682 0
-0.00919877 0.0593434 0
-0.0317518 0.0876555 0
-0.00919877 0.0593434 0
-0.0317518 0.0876555 0
-0.010627 0.0783952 0
-0.0359177 0.116594 0
-0.010627 0.0783952 0
-0.0359177 0.116594 0
-0.011161 0.0995864 0
-0.0362893 0.145866 0
-0.011161 0.0995864 0
-0.0362893 0.145866 0
-0.0104172 0.120816 0
-0.0330864 0.172356 0
-0.0104172 0.120816 0
-0.0330864 0.172356 0
-0.00861843 0.139807 0
-0.0269941 0.194219 0
-0.00861843 0.139807 0
-0.0269941 0.194219 0
-0.00591003 0.154613 0
-0.0191997 0.210794 0
-0.00591003 0.154613 0
-0.0191997 0.210794 0
-0.00281415 0.16391 0
-0.0103744 0.222019 0
-0.00281415 0.16391 0
-0.0103744 0.222019 0
0.000611444 0.166912 0
-0.00122752 0.228092 0
0.000611444 0.166912 0
-0.00122752 0.228092 0
0.0039166 0.163307 0
0.00806335 0.229131 0
0.0039166 0.163307 0
0.00806335 0.229131 0
0.00720332 0.153128 0
0.0170448 0.225165 0
0.00720332 0.153128 0
0.0170448 0.225165 0
0.0099552 0.136826 0
0.0255624 0.215991 0
0.0099552 0.136826 0
0.0255624 0.215991 0
0.0122612 0.11532 0
0.0328496 0.201385 0
0.0122612 0.11532 0
0.0328496 0.201385 0
0.0133522 0.0902431 0
0.038344 0.181045 0
0.0133522 0.0902431 0
0.038344 0.181045 0
0.013326 0.0639445 0
0.0407317 0.155113 0
0.013326 0.0639445 0
0.0407317 0.155113 0
0.0114059 0.0394695 0
0.0394512 0.124266 0
0.0114059 0.0394695 0
0.0394512 0.124266 0
0.00846991 0.0197539 0
0.0337553 0.0906903 0
0.00846991 0.0197539 0
0.0337553 0.0906903 0
0.00474548 0.00662196 0
0.0253677 0.0578934 0
0.00474548 0.00662196 0
0.0253677 0.0578934 0
0.00266787 -0.000792902 0
0.0159687 0.0312942 0
0.00266787 -0.000792902 0
0.0159687 0.0312942 0
0.00112809 -0.00465835 0
0.00916009 0.0136984 0
0.00112809 -0.00465835 0
0.00916009 0.0136984 0
-0.000861414 -0.00505782 0
0.00132348 0.0037436 0
-0.000861414 -0.00505782 0
0.00132348 0.0037436 0
-0.00556364 0.00112669 0
-0.00392444 -0.00658815 0
-0.00556364 0.00112669 0
-0.00392444 -0.00658815 0
0.0230454 -0.0167384 0
0.00527095 0.0273154 0
0.0230454 -0.0167384 0
0.00527095 0.0273154 0
-0.0831477 0.0423045 0
-0.115271 0.0170842 0
-0.0831477 0.0423045 0
-0.115271 0.0170842 0
0.054218 0.0736188 0
0.0881709 -0.00863582 0
0.054218 0.0736188 0
0.0881709 -0.00863582 0
1 0 0
1 0 0
-0.00623399 -0.000953614 0
-0.010847 0.00298904 0
-0.00656092 0.00384902 0
-0.0117742 0.00828365 0
-0.00656092 0.00384902 0
-0.0117742 0.00828365 0
-0.00737903 0.00919741 0
-0.0130955 0.0139809 0
-0.00737903 0.00919741 0
-0.0130955 0.0139809 0
-0.00847884 0.0151195 0
-0.0152402 0.0205414 0
-0.00847884 0.0151195 0
-0.0152402 0.0205414 0
-0.0104547 0.0221765 0
-0.0196707 0.0294515 0
-0.0104547 0.0221765 0
-0.0196707 0.0294515 0
-0.0136682 0.0313067 0
-0.0282573 0.044095 0
-0.0136682 0.0313067 0
-0.0282573 0.044095 0
-0.0186282 0.0441369 0
-0.0418276 0.0689843 0
-0.0186282 0.0441369 0
-0.0418276 0.0689843 0
-0.0252918 0.0627682 0
-0.0562029 0.104325 0
-0.0252918 0.0627682 0
-0.0562029 0.104325 0
-0.0317518 0.0876555 0
-0.0661661 0.144534 0
-0.0317518 0.0876555 0
-0.0661661 0.144534 0
-0.0359177 0.116594 0
-0.0688091 0.182614 0
-0.0359177 0.116594 0
-0.0688091 0.182614 0
-0.0362893 0.145866 0
-0.0645705 0.214222 0
-0.0362893 0.145866 0
-0.0645705 0.214222 0
-0.0330864 0.172356 0
-0.0554618 0.23816 0
-0.0330864 0.172356 0
-0.0554618 0.23816 0
-0.0269941 0.194219 0
-0.0435629 0.255107 0
-0.0269941 0.194219 0
-0.0435629 0.255107 0
-0.0191997 0.210794 0
-0.0304695 0.266343 0
-0.0191997 0.210794 0
-0.0304695 0.266343 0
-0.0103744 0.222019 0
-0.016951 0.273021 0
-0.0103744 0.222019 0
-0.016951 0.273021 0
-0.00122752 0.228092 0
-0.00350082 0.275917 0
-0.00122752 0.228092 0
-0.00350082 0.275917 0
0.00806335 0.229131 0
0.00988866 0.275471 0
0.00806335 0.229131 0
0.00988866 0.275471 0
0.0170448 0.225165 0
0.0230222 0.271788 0
0.0170448 0.225165 0
0.0230222 0.271788 0
0.0255624 0.215991 0
0.0358839 0.264809 0
0.0255624 0.215991 0
0.0358839 0.264809 0
0.0328496 0.201385 0
0.047946 0.254152 0
0.0328496 0.201385 0
0.047946 0.254152 0
0.038344 0.181045 0
0.0585493 0.23936 0
0.038344 0.181045 0
0.0585493 0.23936 0
0.0407317 0.155113 0
0.0664533 0.219581 0
0.0407317 0.155113 0
0.0664533 0.219581 0
0.0394512 0.124266 0
0.0701823 0.194228 0
0.0394512 0.124266 0
0.0701823 0.194228 0
0.0337553 0.0906903 0
0.0683925 0.162719 0
0.0337553 0.0906903 0
0.0683925 0.162719 0
0.0253677 0.0578934 0
0.0602508 0.126268 0
0.0253677 0.0578934 0
0.0602508 0.126268 0
0.0159687 0.0312942 0
0.0468432 0.0873567 0
0.0159687 0.0312942 0
0.0468432 0.0873567 0
0.00916009 0.0136984 0
0.030959 0.0524873 0
0.00916009 0.0136984 0
0.030959 0.0524873 0
0.00132348 0.0037436 0
0.016475 0.025729 0
0.00132348 0.0037436 0
0.016475 0.025729 0
-0.00392444 -0.00658815 0
0.00407669 0.0129806 0
-0.00392444 -0.00658815 0
0.00407669 0.0129806 0
0.00527095 0.0273154 0
-0.020259 -0.00326537 0
0.00527095 0.0273154 0
-0.020259 -0.00326537 0
-0.115271 0.0170842 0
-0.0861706 0.0026274 0
-0.115271 0.0170842 0
-0.0861706 0.0026274 0
0.0881709 -0.00863582 0
0.0719254 0.0197729 0
0.0881709 -0.00863582 0
0.0719254 0.0197729 0
1 0 0
1 0 0
-0.010847 0.00298904 0
-0.0160185 0.00749329 0
-0.0117742 0.00828365 0
-0.0173271 0.013021 0
-0.0117742 0.00828365 0
-0.0173271 0.013021 0
-0.0130955 0.0139809 0
-0.0194543 0.0191705 0
-0.0130955 0.0139809 0
-0.0194543 0.0191705 0
-0.0152402 0.0205414 0
-0.0239546 0.0274895 0
-0.0152402 0.0205414 0
-0.0239546 0.0274895 0
-0.0196707 0.0294515 0
-0.0355419 0.0429505 0
-0.0196707 0.0294515 0
-0.0355419 0.0429505 0
-0.0282573 0.044095 0
-0.0573405 0.0730002 0
-0.0282573 0.044095 0
-0.0573405 0.0730002 0
-0.0418276 0.0689843 0
-0.0820892 0.117132 0
-0.0418276 0.0689843 0
-0.0820892 0.117132 0
-0.0562029 0.104325 0
-0.0990632 0.164538 0
-0.0562029 0.104325 0
-0.0990632 0.164538 0
-0.0661661 0.144534 0
-0.103643 0.204312 0
-0.0661661 0.144534 0
-0.103643 0.204312 0
-0.0688091 0.182614 0
-0.0973685 0.232 0
-0.0688091 0.182614 0
-0.0973685 0.232 0
-0.0645705 0.214222 0
-0.0846486 0.248866 0
-0.0645705 0.214222 0
-0.0846486 0.248866 0
-0.0554618 0.23816 0
-0.0688465 0.258314 0
-0.0554618 0.23816 0
-0.0688465 0.258314 0
-0.0435629 0.255107 0
-0.0524367 0.26359 0
-0.0435629 0.255107 0
-0.0524367 0.26359 0
-0.0304695 0.266343 0
-0.0360249 0.26677 0
-0.0304695 0.266343 0
-0.0360249 0.26677 0
-0.016951 0.273021 0
-0.0202599 0.26895 0
-0.016951 0.273021 0
-0.0202599 0.26895 0
-0.00350082 0.275917 0
-0.00462602 0.270509 0
-0.00350082 0.275917 0
-0.00462602 0.270509 0
0.00988866 0.275471 0
0.0105525 0.271469 0
0.00988866 0.275471 0
0.0105525 0.271469 0
0.0230222 0.271788 0
0.0260055 0.271617 0
0.0230222 0.271788 0
0.0260055 0.271617 0
0.0358839 0.264809 0
0.0411453 0.270515 0
0.0358839 0.264809 0
0.0411453 0.270515 0
0.047946 0.254152 0
0.0565295 0.267552 0
0.047946 0.254152 0
0.0565295 0.267552 0
0.0585493 0.23936 0
0.0708478 0.261717 0
0.0585493 0.23936 0
0.0708478 0.261717 0
0.0664533 0.219581 0
0.084014 0.251913 0
0.0664533 0.219581 0
0.084014 0.251913 0
0.0701823 0.194228 0
0.0935836 0.236581 0
0.0701823 0.194228 0
0.0935836 0.236581 0
0.0683925 0.162719 0
0.0985908 0.214751 0
0.0683925 0.162719 0
0.0985908 0.214751 0
0.0602508 0.126268 0
0.0961778 0.185326 0
0.0602508 0.126268 0
0.0961778 0.185326 0
0.0468432 0.0873567 0
0.0857195 0.149618 0
0.0468432 0.0873567 0
0.0857195 0.149618 0
0.030959 0.0524873 0
0.0672953 0.109394 0
0.030959 0.0524873 0
0.0672953 0.109394 0
0.016475 0.025729 0
0.0439085 0.0724451 0
0.016475 0.025729 0
0.0439085 0.0724451 0
0.00407669 0.0129806 0
0.018926 0.0427849 0
0.00407669 0.0129806 0
0.018926 0.0427849 0
-0.020259 -0.00326537 0
-0.0101968 0.0340613 0
-0.020259 -0.00326537 0
-0.0101968 0.0340613 0
-0.0861706 0.0026274 0
-0.0857312 0.0174708 0
-0.0861706 0.0026274 0
-0.0857312 0.0174708 0
0.0719254 0.0197729 0
0.0718526 0.00459442 0
0.0719254 0.0197729 0
0.0718526 0.00459442 0
1 0 0
1 0 0
-0.0160185 0.00749329 0
-0.0214996 0.0118247 0
-0.0173271 0.013021 0
-0.0230972 0.0176747 0
-0.0173271 0.013021 0
-0.0230972 0.0176747 0
-0.0194543 0.0191705 0
-0.0270111 0.0248248 0
-0.0194543 0.0191705 0
-0.0270111 0.0248248 0
-0.0239546 0.0274895 0
-0.0387096 0.0386607 0
-0.0239546 0.0274895 0
-0.0387096 0.0386607 0
-0.0355419 0.0429505 0
-0.0678951 0.0701173 0
-0.0355419 0.0429505 0
-0.0678951 0.0701173 0
-0.0573405 0.0730002 0
-0.104698 0.119549 0
-0.0573405 0.0730002 0
-0.104698 0.119549 0
-0.0820892 0.117132 0
-0.129787 0.170269 0
-0.0820892 0.117132 0
-0.129787 0.170269 0
-0.0990632 0.164538 0
-0.135648 0.207047 0
-0.0990632 0.164538 0
-0.135648 0.207047 0
-0.103643 0.204312 0
-0.126357 0.226612 0
-0.103643 0.204312 0
-0.126357 0.226612 0
-0.0973685 0.232 0
-0.109726 0.234112 0
-0.0973685 0.232 0
-0.109726 0.234112 0
-0.0846486 0.248866 0
-0.090899 0.235986 0
-0.0846486 0.248866 0
-0.090899 0.235986 0
-0.0688465 0.258314 0
-0.0724771 0.236507 0
-0.0688465 0.258314 0
-0.0724771 0.236507 0
-0.0524367 0.26359 0
-0.0548691 0.237341 0
-0.0524367 0.26359 0
-0.0548691 0.237341 0
-0.0360249 0.26677 0
-0.0381708 0.238736 0
-0.0360249 0.26677 0
-0.0381708 0.238736 0
-0.0202599 0.26895 0
-0.0219671 0.240386 0
-0.0202599 0.26895 0
-0.0219671 0.240386 0
-0.00462602 0.270509 0
-0.00617008 0.24202 0
-0.00462602 0.270509 0
-0.00617008 0.24202 0
0.0105525 0.271469 0
0.00961575 0.243483 0
0.0105525 0.271469 0
0.00961575 0.243483 0
0.0260055 0.271617 0
0.0253943 0.244806 0
0.0260055 0.271617 0
0.0253943 0.244806 0
0.0411453 0.270515 0
0.0415785 0.24604 0
0.0411453 0.270515 0
0.0415785 0.24604 0
0.0565295 0.267552 0
0.0578952 0.247173 0
0.0565295 0.267552 0
0.0578952 0.247173 0
0.0708478 0.261717 0
0.074716 0.247828 0
0.0708478 0.261717 0
0.074716 0.247828 0
0.084014 0.251913 0
0.090835 0.247043 0
0.084014 0.251913 0
0.090835 0.247043 0
0.0935836 0.236581 0
0.106167 0.243177 0
0.0935836 0.236581 0
0.106167 0.243177 0
0.0985908 0.214751 0
0.117352 0.233895 0
0.0985908 0.214751 0
0.117352 0.233895 0
0.0961778 0.185326 0
0.123801 0.21723 0
0.0961778 0.185326 0
0.123801 0.21723 0
0.0857195 0.149618 0
0.119879 0.191437 0
0.0857195 0.149618 0
0.119879 0.191437 0
0.0672953 0.109394 0
0.107187 0.15786 0
0.0672953 0.109394 0
0.107187 0.15786 0
0.0439085 0.0724451 0
0.0811914 0.117896 0
0.0439085 0.0724451 0
0.0811914 0.117896 0
0.018926 0.0427849 0
0.0487624 0.0804693 0
0.018926 0.0427849 0
0.0487624 0.0804693 0
-0.0101968 0.0340613 0
0.00845547 0.040883 0
-0.0101968 0.0340613 0
0.00845547 0.040883 0
-0.0857312 0.0174708 0
-0.0534304 0.00618369 0
-0.0857312 0.0174708 0
-0.0534304 0.00618369 0
0.0718526 0.00459442 0
0.0579682 0.00395672 0
0.0718526 0.00459442 0
0.0579682 0.00395672 0
1 0 0
1 0 0
-0.0214996 0.0118247 0
-0.0271503 0.0155684 0
-0.0230972 0.0176747 0
-0.0292504 0.0217829 0
-0.0230972 0.0176747 0
-0.0292504 0.0217829 0
-0.0270111 0.0248248 0
-0.0379091 0.031811 0
-0.0270111 0.0248248 0
-0.0379091 0.031811 0
-0.0387096 0.0386607 0
-0.0693634 0.0595064 0
-0.0387096 0.0386607 0
-0.0693634 0.0595064 0
-0.0678951 0.0701173 0
-0.119141 0.109921 0
-0.0678951 0.0701173 0
-0.119141 0.109921 0
-0.104698 0.119549 0
-0.155061 0.162153 0
-0.104698 0.119549 0
-0.155061 0.162153 0
-0.129787 0.170269 0
-0.163262 0.195462 0
-0.129787 0.170269 0
-0.163262 0.195462 0
-0.135648 0.207047 0
-0.151252 0.208019 0
-0.135648 0.207047 0
-0.151252 0.208019 0
-0.126357 0.226612 0
-0.131421 0.209329 0
-0.126357 0.226612 0
-0.131421 0.209329 0
-0.109726 0.234112 0
-0.110947 0.208218 0
-0.109726 0.234112 0
-0.110947 0.208218 0
-0.090899 0.235986 0
-0.0917956 0.208475 0
-0.090899 0.235986 0
-0.0917956 0.208475 0
-0.0724771 0.236507 0
-0.0739807 0.210317 0
-0.0724771 0.236507 0
-0.0739807 0.210317 0
-0.0548691 0.237341 0
-0.0568032 0.212869 0
-0.0548691 0.237341 0
-0.0568032 0.212869 0
-0.0381708 0.238736 0
-0.040251 0.215433 0
-0.0381708 0.238736 0
-0.040251 0.215433 0
-0.0219671 0.240386 0
-0.0237875 0.217636 0
-0.0219671 0.240386 0
-0.0237875 0.217636 0
-0.00617008 0.24202 0
-0.00775434 0.21935 0
-0.00617008 0.24202 0
-0.00775434 0.21935 0
0.00961575 0.243483 0
0.00847792 0.220552 0
0.00961575 0.243483 0
0.00847792 0.220552 0
0.0253943 0.244806 0
0.0243864 0.221293 0
0.0253943 0.244806 0
0.0243864 0.221293 0
0.0415785 0.24604 0
0.0408068 0.221744 0
0.0415785 0.24604 0
0.0408068 0.221744 0
0.0578952 0.247173 0
0.057022 0.222131 0
0.0578952 0.247173 0
0.057022 0.222131 0
0.074716 0.247828 0
0.0741041 0.22283 0
0.074716 0.247828 0
0.0741041 0.22283 0
0.090835 0.247043 0
0.0910336 0.22391 0
0.090835 0.247043 0
0.0910336 0.22391 0
0.106167 0.243177 0
0.10864 0.225022 0
0.106167 0.243177 0
0.10864 0.225022 0
0.117352 0.233895 0
0.124752 0.224449 0
0.117352 0.233895 0
0.124752 0.224449 0
0.123801 0.21723 0
0.137985 0.219579 0
0.123801 0.21723 0
0.137985 0.219579 0
0.119879 0.191437 0
0.144255 0.207004 0
0.119879 0.191437 0
0.144255 0.207004 0
0.107187 0.15786 0
0.138971 0.184526 0
0.107187 0.15786 0
0.138971 0.184526 0
0.0811914 0.117896 0
0.121823 0.152308 0
0.0811914 0.117896 0
0.121823 0.152308 0
0.0487624 0.0804693 0
0.0854267 0.112399 0
0.0487624 0.0804693 0
0.0854267 0.112399 0
0.00845547 0.040883 0
0.0506199 0.0731559 0
0.00845547 0.040883 0
0.0506199 0.0731559 0
-0.0534304 0.00618369 0
-0.0192152 0.0313868 0
-0.0534304 0.00618369 0
-0.0192152 0.0313868 0
0.0579682 0.00395672 0
0.0511103 0.00924315 0
0.0579682 0.00395672 0
0.0511103 0.00924315 0
1 0 0
1 0 0
-0.0271503 0.0155684 0
-0.0328125 0.0184386 0
-0.0292504 0.0217829 0
-0.0358452 0.0248402 0
-0.0292504 0.0217829 0
-0.0358452 0.0248402 0
-0.0379091 0.031811 0
-0.0603845 0.0440966 0
-0.0379091 0.031811 0
-0.0603845 0.0440966 0
-0.0693634 0.0595064 0
-0.120004 0.089584 0
-0.0693634 0.0595064 0
-0.120004 0.089584 0
-0.119141 0.109921 0
-0.172096 0.142964 0
-0.119141 0.109921 0
-0.172096 0.142964 0
-0.155061 0.162153 0
-0.18694 0.175872 0
-0.155061 0.162153 0
-0.18694 0.175872 0
-0.163262 0.195462 0
-0.17408 0.185501 0
-0.163262 0.195462 0
-0.17408 0.185501 0
-0.151252 0.208019 0
-0.152153 0.184729 0
-0.151252 0.208019 0
-0.152153 0.184729 0
-0.131421 0.209329 0
-0.130958 0.18379 0
-0.131421 0.209329 0
-0.130958 0.18379 0
-0.110947 0.208218 0
-0.111829 0.185215 0
-0.110947 0.208218 0
-0.111829 0.185215 0
-0.0917956 0.208475 0
-0.0939819 0.187934 0
-0.0917956 0.208475 0
-0.0939819 0.187934 0
-0.0739807 0.210317 0
-0.0765236 0.190767 0
-0.0739807 0.210317 0
-0.0765236 0.190767 0
-0.0568032 0.212869 0
-0.0593913 0.193309 0
-0.0568032 0.212869 0
-0.0593913 0.193309 0
-0.040251 0.215433 0
-0.0424113 0.195476 0
-0.040251 0.215433 0
-0.0424113 0.195476 0
-0.0237875 0.217636 0
-0.0256817 0.197306 0
-0.0237875 0.217636 0
-0.0256817 0.197306 0
-0.00775434 0.21935 0
-0.00906359 0.198786 0
-0.00775434 0.21935 0
-0.00906359 0.198786 0
0.00847792 0.220552 0
0.00742782 0.19992 0
0.00847792 0.220552 0
0.00742782 0.19992 0
0.0243864 0.221293 0
0.0239261 0.200679 0
0.0243864 0.221293 0
0.0239261 0.200679 0
0.0408068 0.221744 0
0.0403922 0.20107 0
0.0408068 0.221744 0
0.0403922 0.20107 0
0.057022 0.222131 0
0.0569916 0.201106 0
0.057022 0.222131 0
0.0569916 0.201106 0
0.0741041 0.22283 0
0.0735458 0.200927 0
0.0741041 0.22283 0
0.0735458 0.200927 0
0.0910336 0.22391 0
0.0905455 0.200841 0
0.0910336 0.22391 0
0.0905455 0.200841 0
0.10864 0.225022 0
0.107506 0.201235 0
0.10864 0.225022 0
0.107506 0.201235 0
0.124752 0.224449 0
0.125436 0.202213 0
0.124752 0.224449 0
0.125436 0.202213 0
0.137985 0.219579 0
0.141825 0.202484 0
0.137985 0.219579 0
0.141825 0.202484 0
0.144255 0.207004 0
0.156282 0.199275 0
0.144255 0.207004 0
0.156282 0.199275 0
0.138971 0.184526 0
0.160605 0.188172 0
0.138971 0.184526 0
0.160605 0.188172 0
0.121823 0.152308 0
0.154227 0.166509 0
0.121823 0.152308 0
0.154227 0.166509 0
0.0854267 0.112399 0
0.126273 0.133308 0
0.0854267 0.112399 0
0.126273 0.133308 0
0.0506199 0.0731559 0
0.0892831 0.0928934 0
0.0506199 0.0731559 0
0.0892831 0.0928934 0
-0.0192152 0.0313868 0
0.0285025 0.0484244 0
-0.0192152 0.0313868 0
0.0285025 0.0484244 0
0.0511103 0.00924315 0
0.0591888 0.0170539 0
0.0511103 0.00924315 0
0.0591888 0.0170539 0
1 0 0
1 0 0
-0.0328125 0.0184386 0
-0.0383391 0.0202647 0
-0.0358452 0.0248402 0
-0.0458506 0.0297987 0
-0.0358452 0.0248402 0
-0.0458506 0.0297987 0
-0.0603845 0.0440966 0
-0.102366 0.0627527 0
-0.0603845 0.0440966 0
-0.102366 0.0627527 0
-0.120004 0.089584 0
-0.175655 0.115119 0
-0.120004 0.089584 0
-0.175655 0.115119 0
-0.172096 0.142964 0
-0.206421 0.152097 0
-0.172096 0.142964 0
-0.206421 0.152097 0
-0.18694 0.175872 0
-0.196584 0.163372 0
-0.18694 0.175872 0
-0.196584 0.163372 0
-0.17408 0.185501 0
-0.173358 0.162654 0
-0.17408 0.185501 0
-0.173358 0.162654 0
-0.152153 0.184729 0
-0.151422 0.161878 0
-0.152153 0.184729 0
-0.151422 0.161878 0
-0.130958 0.18379 0
-0.132353 0.16342 0
-0.130958 0.18379 0
-0.132353 0.16342 0
-0.111829 0.185215 0
-0.114365 0.16591 0
-0.111829 0.185215 0
-0.114365 0.16591 0
-0.0939819 0.187934 0
-0.0966529 0.168401 0
-0.0939819 0.187934 0
-0.0966529 0.168401 0
-0.0765236 0.190767 0
-0.078983 0.170701 0
-0.0765236 0.190767 0
-0.078983 0.170701 0
-0.0593913 0.193309 0
-0.061592 0.172814 0
-0.0593913 0.193309 0
-0.061592 0.172814 0
-0.0424113 0.195476 0
-0.0442883 0.174718 0
-0.0424113 0.195476 0
-0.0442883 0.174718 0
-0.0256817 0.197306 0
-0.0273189 0.176387 0
-0.0256817 0.197306 0
-0.0273189 0.176387 0
-0.00906359 0.198786 0
-0.0103128 0.177785 0
-0.00906359 0.198786 0
-0.0103128 0.177785 0
0.00742782 0.19992 0
0.00640621 0.178901 0
0.00742782 0.19992 0
0.00640621 0.178901 0
0.0239261 0.200679 0
0.0233466 0.179734 0
0.0239261 0.200679 0
0.0233466 0.179734 0
0.0403922 0.20107 0
0.0400091 0.18028 0