# vtk DataFile Version 3.0
#This file was generated by the deal.II library on 2026/3/25 at 11:20:30
ASCII
DATASET UNSTRUCTURED_GRID

POINTS 8020 double
0 0 0
0.03125 0 0
0 0.03125 0
0.03125 0.03125 0
0 0.03125 0
0.03125 0.03125 0
0 0.0625 0
0.03125 0.0625 0
0 0.0625 0
0.03125 0.0625 0
0 0.09375 0
0.03125 0.09375 0
0 0.09375 0
0.03125 0.09375 0
0 0.125 0
0.03125 0.125 0
0 0.125 0
0.03125 0.125 0
0 0.15625 0
0.03125 0.15625 0
0 0.15625 0
0.03125 0.15625 0
0 0.1875 0
0.03125 0.1875 0
0 0.1875 0
0.03125 0.1875 0
0 0.21875 0
0.03125 0.21875 0
0 0.21875 0
0.03125 0.21875 0
0 0.25 0
0.03125 0.25 0
0 0.25 0
0.03125 0.25 0
0 0.28125 0
0.03125 0.28125 0
0 0.28125 0
0.03125 0.28125 0
0 0.3125 0
0.03125 0.3125 0
0.03125 0 0
0.0625 0 0
0.03125 0.03125 0
0.0625 0.03125 0
0.03125 0.03125 0
0.0625 0.03125 0
0.03125 0.0625 0
0.0625 0.0625 0
0.03125 0.0625 0
0.0625 0.0625 0
0.03125 0.09375 0
0.0625 0.09375 0
0.03125 0.09375 0
0.0625 0.09375 0
0.03125 0.125 0
0.0625 0.125 0
0.03125 0.125 0
0.0625 0.125 0
0.03125 0.15625 0
0.0625 0.15625 0
0.03125 0.15625 0
0.0625 0.15625 0
0.03125 0.1875 0
0.0625 0.1875 0
0.03125 0.1875 0
0.0625 0.1875 0
0.03125 0.21875 0
0.0625 0.21875 0
0.03125 0.21875 0
0.0625 0.21875 0
0.03125 0.25 0
0.0625 0.25 0
0.03125 0.25 0
0.0625 0.25 0
0.03125 0.28125 0
0.0625 0.28125 0
0.03125 0.28125 0
0.0625 0.28125 0
0.03125 0.3125 0
0.0625 0.3125 0
0.0625 0 0
0.09375 0 0
0.0625 0.03125 0
0.09375 0.03125 0
0.0625 0.03125 0
0.09375 0.03125 0
0.0625 0.0625 0
0.09375 0.0625 0
0.0625 0.0625 0
0.09375 0.0625 0
0.0625 0.09375 0
0.09375 0.09375 0
0.0625 0.09375 0
0.09375 0.09375 0
0.0625 0.125 0
0.09375 0.125 0
0.0625 0.125 0
0.09375 0.125 0
0.0625 0.15625 0
0.09375 0.15625 0
0.0625 0.15625 0
0.09375 0.15625 0
0.0625 0.1875 0
0.09375 0.1875 0
0.0625 0.1875 0
0.09375 0.1875 0
0.0625 0.21875 0
0.09375 0.21875 0
0.0625 0.21875 0
0.09375 0.21875 0
0.0625 0.25 0
0.09375 0.25 0
0.0625 0.25 0
0.09375 0.25 0
0.0625 0.28125 0
0.09375 0.28125 0
0.0625 0.28125 0
0.09375 0.28125 0
0.0625 0.3125 0
0.09375 0.3125 0
0.0625 0.625 0
0.09375 0.625 0
0.0625 0.65625 0
0.09375 0.65625 0
0.0625 0.65625 0
0.09375 0.65625 0
0.0625 0.6875 0
0.09375 0.6875 0
0.0625 0.6875 0
0.09375 0.6875 0
0.0625 0.71875 0
0.09375 0.71875 0
0.0625 0.71875 0
0.09375 0.71875 0
0.0625 0.75 0
0.09375 0.75 0
0.0625 0.75 0
0.09375 0.75 0
0.0625 0.78125 0
0.09375 0.78125 0
0.0625 0.78125 0
0.09375 0.78125 0
0.0625 0.8125 0
0.09375 0.8125 0
0.0625 0.8125 0
0.09375 0.8125 0
0.0625 0.84375 0
0.09375 0.84375 0
0.0625 0.84375 0
0.09375 0.84375 0
0.0625 0.875 0
0.09375 0.875 0
0.09375 0 0
0.125 0 0
0.09375 0.03125 0
0.125 0.03125 0
0.09375 0.03125 0
0.125 0.03125 0
0.09375 0.0625 0
0.125 0.0625 0
0.09375 0.0625 0
0.125 0.0625 0
0.09375 0.09375 0
0.125 0.09375 0
0.09375 0.09375 0
0.125 0.09375 0
0.09375 0.125 0
0.125 0.125 0
0.09375 0.125 0
0.125 0.125 0
0.09375 0.15625 0
0.125 0.15625 0
0.09375 0.15625 0
0.125 0.15625 0
0.09375 0.1875 0
0.125 0.1875 0
0.09375 0.1875 0
0.125 0.1875 0
0.09375 0.21875 0
0.125 0.21875 0
0.09375 0.21875 0
0.125 0.21875 0
0.09375 0.25 0
0.125 0.25 0
0.09375 0.25 0
0.125 0.25 0
0.09375 0.28125 0
0.125 0.28125 0
0.09375 0.28125 0
0.125 0.28125 0
0.09375 0.3125 0
0.125 0.3125 0
0.09375 0.46875 0
0.125 0.46875 0
0.09375 0.5 0
0.125 0.5 0
0.09375 0.5 0
0.125 0.5 0
0.09375 0.53125 0
0.125 0.53125 0
0.09375 0.53125 0
0.125 0.53125 0
0.09375 0.5625 0
0.125 0.5625 0
0.09375 0.5625 0
0.125 0.5625 0
0.09375 0.59375 0
0.125 0.59375 0
0.09375 0.59375 0
0.125 0.59375 0
0.09375 0.625 0
0.125 0.625 0
0.09375 0.625 0
0.125 0.625 0
0.09375 0.65625 0
0.125 0.65625 0
0.09375 0.65625 0
0.125 0.65625 0
0.09375 0.6875 0
0.125 0.6875 0
0.09375 0.6875 0
0.125 0.6875 0
0.09375 0.71875 0
0.125 0.71875 0
0.09375 0.71875 0
0.125 0.71875 0
0.09375 0.75 0
0.125 0.75 0
0.09375 0.75 0
0.125 0.75 0
0.09375 0.78125 0
0.125 0.78125 0
0.09375 0.78125 0
0.125 0.78125 0
0.09375 0.8125 0
0.125 0.8125 0
0.09375 0.8125 0
0.125 0.8125 0
0.09375 0.84375 0
0.125 0.84375 0
0.09375 0.84375 0
0.125 0.84375 0
0.09375 0.875 0
0.125 0.875 0
0.125 0 0
0.15625 0 0
0.125 0.03125 0
0.15625 0.03125 0
0.125 0.03125 0
0.15625 0.03125 0
0.125 0.0625 0
0.15625 0.0625 0
0.125 0.0625 0
0.15625 0.0625 0
0.125 0.09375 0
0.15625 0.09375 0
0.125 0.09375 0
0.15625 0.09375 0
0.125 0.125 0
0.15625 0.125 0
0.125 0.125 0
0.15625 0.125 0
0.125 0.15625 0
0.15625 0.15625 0
0.125 0.15625 0
0.15625 0.15625 0
0.125 0.1875 0
0.15625 0.1875 0
0.125 0.1875 0
0.15625 0.1875 0
0.125 0.21875 0
0.15625 0.21875 0
0.125 0.28125 0
0.15625 0.28125 0
0.125 0.3125 0
0.15625 0.3125 0
0.125 0.3125 0
0.15625 0.3125 0
0.125 0.34375 0
0.15625 0.34375 0
0.125 0.34375 0
0.15625 0.34375 0
0.125 0.375 0
0.15625 0.375 0
0.125 0.375 0
0.15625 0.375 0
0.125 0.40625 0
0.15625 0.40625 0
0.125 0.40625 0
0.15625 0.40625 0
0.125 0.4375 0
0.15625 0.4375 0
0.125 0.4375 0
0.15625 0.4375 0
0.125 0.46875 0
0.15625 0.46875 0
0.125 0.46875 0
0.15625 0.46875 0
0.125 0.5 0
0.15625 0.5 0
0.125 0.5 0
0.15625 0.5 0
0.125 0.53125 0
0.15625 0.53125 0
0.125 0.53125 0
0.15625 0.53125 0
0.125 0.5625 0
0.15625 0.5625 0
0.125 0.5625 0
0.15625 0.5625 0
0.125 0.59375 0
0.15625 0.59375 0
0.125 0.59375 0
0.15625 0.59375 0
0.125 0.625 0
0.15625 0.625 0
0.125 0.625 0
0.15625 0.625 0
0.125 0.65625 0
0.15625 0.65625 0
0.125 0.65625 0
0.15625 0.65625 0
0.125 0.6875 0
0.15625 0.6875 0
0.125 0.6875 0
0.15625 0.6875 0
0.125 0.71875 0
0.15625 0.71875 0
0.125 0.71875 0
0.15625 0.71875 0
0.125 0.75 0
0.15625 0.75 0
0.125 0.75 0
0.15625 0.75 0
0.125 0.78125 0
0.15625 0.78125 0
0.125 0.78125 0
0.15625 0.78125 0
0.125 0.8125 0
0.15625 0.8125 0
0.125 0.8125 0
0.15625 0.8125 0
0.125 0.84375 0
0.15625 0.84375 0
0.125 0.84375 0
0.15625 0.84375 0
0.125 0.875 0
0.15625 0.875 0
0.125 0.875 0
0.15625 0.875 0
0.125 0.90625 0
0.15625 0.90625 0
0.15625 0 0
0.1875 0 0
0.15625 0.03125 0
0.1875 0.03125 0
0.15625 0.03125 0
0.1875 0.03125 0
0.15625 0.0625 0
0.1875 0.0625 0
0.15625 0.0625 0
0.1875 0.0625 0
0.15625 0.09375 0
0.1875 0.09375 0
0.15625 0.09375 0
0.1875 0.09375 0
0.15625 0.125 0
0.1875 0.125 0
0.15625 0.125 0
0.1875 0.125 0
0.15625 0.15625 0
0.1875 0.15625 0
0.15625 0.25 0
0.1875 0.25 0
0.15625 0.28125 0
0.1875 0.28125 0
0.15625 0.28125 0
0.1875 0.28125 0
0.15625 0.3125 0
0.1875 0.3125 0
0.15625 0.3125 0
0.1875 0.3125 0
0.15625 0.34375 0
0.1875 0.34375 0
0.15625 0.34375 0
0.1875 0.34375 0
0.15625 0.375 0
0.1875 0.375 0
0.15625 0.375 0
0.1875 0.375 0
0.15625 0.40625 0
0.1875 0.40625 0
0.15625 0.40625 0
0.1875 0.40625 0
0.15625 0.4375 0
0.1875 0.4375 0
0.15625 0.4375 0
0.1875 0.4375 0
0.15625 0.46875 0
0.1875 0.46875 0
0.15625 0.46875 0
0.1875 0.46875 0
0.15625 0.5 0
0.1875 0.5 0
0.15625 0.5 0
0.1875 0.5 0
0.15625 0.53125 0
0.1875 0.53125 0
0.15625 0.53125 0
0.1875 0.53125 0
0.15625 0.5625 0
0.1875 0.5625 0
0.15625 0.5625 0
0.1875 0.5625 0
0.15625 0.59375 0
0.1875 0.59375 0
0.15625 0.59375 0
0.1875 0.59375 0
0.15625 0.625 0
0.1875 0.625 0
0.15625 0.625 0
0.1875 0.625 0
0.15625 0.65625 0
0.1875 0.65625 0
0.15625 0.65625 0
0.1875 0.65625 0
0.15625 0.6875 0
0.1875 0.6875 0
0.15625 0.6875 0
0.1875 0.6875 0
0.15625 0.71875 0
0.1875 0.71875 0
0.15625 0.71875 0
0.1875 0.71875 0
0.15625 0.75 0
0.1875 0.75 0
0.15625 0.75 0
0.1875 0.75 0
0.15625 0.78125 0
0.1875 0.78125 0
0.15625 0.78125 0
0.1875 0.78125 0
0.15625 0.8125 0
0.1875 0.8125 0
0.15625 0.8125 0
0.1875 0.8125 0
0.15625 0.84375 0
0.1875 0.84375 0
0.15625 0.84375 0
0.1875 0.84375 0
0.15625 0.875 0
0.1875 0.875 0
0.15625 0.875 0
0.1875 0.875 0
0.15625 0.90625 0
0.1875 0.90625 0
0.1875 0.1875 0
0.21875 0.1875 0
0.1875 0.21875 0
0.21875 0.21875 0
0.1875 0.21875 0
0.21875 0.21875 0
0.1875 0.25 0
0.21875 0.25 0
0.1875 0.25 0
0.21875 0.25 0
0.1875 0.28125 0
0.21875 0.28125 0
0.1875 0.28125 0
0.21875 0.28125 0
0.1875 0.3125 0
0.21875 0.3125 0
0.1875 0.3125 0
0.21875 0.3125 0
0.1875 0.34375 0
0.21875 0.34375 0
0.1875 0.34375 0
0.21875 0.34375 0
0.1875 0.375 0
0.21875 0.375 0
0.1875 0.375 0
0.21875 0.375 0
0.1875 0.40625 0
0.21875 0.40625 0
0.1875 0.40625 0
0.21875 0.40625 0
0.1875 0.4375 0
0.21875 0.4375 0
0.1875 0.4375 0
0.21875 0.4375 0
0.1875 0.46875 0
0.21875 0.46875 0
0.1875 0.46875 0
0.21875 0.46875 0
0.1875 0.5 0
0.21875 0.5 0
0.1875 0.5 0
0.21875 0.5 0
0.1875 0.53125 0
0.21875 0.53125 0
0.1875 0.53125 0
0.21875 0.53125 0
0.1875 0.5625 0
0.21875 0.5625 0
0.1875 0.5625 0
0.21875 0.5625 0
0.1875 0.59375 0
0.21875 0.59375 0
0.1875 0.59375 0
0.21875 0.59375 0
0.1875 0.625 0
0.21875 0.625 0
0.1875 0.625 0
0.21875 0.625 0
0.1875 0.65625 0
0.21875 0.65625 0
0.1875 0.65625 0
0.21875 0.65625 0
0.1875 0.6875 0
0.21875 0.6875 0
0.1875 0.6875 0
0.21875 0.6875 0
0.1875 0.71875 0
0.21875 0.71875 0
0.1875 0.71875 0
0.21875 0.71875 0
0.1875 0.75 0
0.21875 0.75 0
0.1875 0.75 0
0.21875 0.75 0
0.1875 0.78125 0
0.21875 0.78125 0
0.1875 0.78125 0
0.21875 0.78125 0
0.1875 0.8125 0
0.21875 0.8125 0
0.1875 0.8125 0
0.21875 0.8125 0
0.1875 0.84375 0
0.21875 0.84375 0
0.1875 0.84375 0
0.21875 0.84375 0
0.1875 0.875 0
0.21875 0.875 0
0.1875 0.875 0
0.21875 0.875 0
0.1875 0.90625 0
0.21875 0.90625 0
0.21875 0.15625 0
0.25 0.15625 0
0.21875 0.1875 0
0.25 0.1875 0
0.21875 0.1875 0
0.25 0.1875 0
0.21875 0.21875 0
0.25 0.21875 0
0.21875 0.21875 0
0.25 0.21875 0
0.21875 0.25 0
0.25 0.25 0
0.21875 0.25 0
0.25 0.25 0
0.21875 0.28125 0
0.25 0.28125 0
0.21875 0.28125 0
0.25 0.28125 0
0.21875 0.3125 0
0.25 0.3125 0
0.21875 0.3125 0
0.25 0.3125 0
0.21875 0.34375 0
0.25 0.34375 0
0.21875 0.34375 0
0.25 0.34375 0
0.21875 0.375 0
0.25 0.375 0
0.21875 0.375 0
0.25 0.375 0
0.21875 0.40625 0
0.25 0.40625 0
0.21875 0.40625 0
0.25 0.40625 0
0.21875 0.4375 0
0.25 0.4375 0
0.21875 0.4375 0
0.25 0.4375 0
0.21875 0.46875 0
0.25 0.46875 0
0.21875 0.46875 0
0.25 0.46875 0
0.21875 0.5 0
0.25 0.5 0
0.21875 0.5 0
0.25 0.5 0
0.21875 0.53125 0
0.25 0.53125 0
0.21875 0.53125 0
0.25 0.53125 0
0.21875 0.5625 0
0.25 0.5625 0
0.21875 0.5625 0
0.25 0.5625 0
0.21875 0.59375 0
0.25 0.59375 0
0.21875 0.59375 0
0.25 0.59375 0
0.21875 0.625 0
0.25 0.625 0
0.21875 0.625 0
0.25 0.625 0
0.21875 0.65625 0
[...]
POINT_DATA 8020
VECTORS velocity double
0 0 0
-0.00206512 -0.00349075 0
0 0 0
-0.00232342 0.000421143 0
0 0 0
-0.00232342 0.000421143 0
0 0 0
-0.00239672 0.00432822 0
0 0 0
-0.00239672 0.00432822 0
0 0 0
-0.00313333 0.00907642 0
0 0 0
-0.00313333 0.00907642 0
0 0 0
-0.0027574 0.0140272 0
0 0 0
-0.0027574 0.0140272 0
0 0 0
-0.00445795 0.0204154 0
0 0 0
-0.00445795 0.0204154 0
0 0 0
-0.00481728 0.0287648 0
0 0 0
-0.00481728 0.0287648 0
0 0 0
-0.00648929 0.0393711 0
0 0 0
-0.00648929 0.0393711 0
0 0 0
-0.00859916 0.0536909 0
0 0 0
-0.00859916 0.0536909 0
0 0 0
-0.0109043 0.0726231 0
0 0 0
-0.0109043 0.0726231 0
0 0 0
-0.0129312 0.0960552 0
-0.00206512 -0.00349075 0
-0.00623399 -0.000953614 0
-0.00232342 0.000421143 0
-0.00662575 0.00378966 0
-0.00232342 0.000421143 0
-0.00662575 0.00378966 0
-0.00239672 0.00432822 0
-0.00683007 0.00888145 0
-0.00239672 0.00432822 0
-0.00683007 0.00888145 0
-0.00313333 0.00907642 0
-0.00883566 0.0145958 0
-0.00313333 0.00907642 0
-0.00883566 0.0145958 0
-0.0027574 0.0140272 0
-0.00794032 0.0206267 0
-0.0027574 0.0140272 0
-0.00794032 0.0206267 0
-0.00445795 0.0204154 0
-0.013337 0.0286448 0
-0.00445795 0.0204154 0
-0.013337 0.0286448 0
-0.00481728 0.0287648 0
-0.0142251 0.0387163 0
-0.00481728 0.0287648 0
-0.0142251 0.0387163 0
-0.00648929 0.0393711 0
-0.0234482 0.0549755 0
-0.00648929 0.0393711 0
-0.0234482 0.0549755 0
-0.00859916 0.0536909 0
-0.0314862 0.0807543 0
-0.00859916 0.0536909 0
-0.0314862 0.0807543 0
-0.0109043 0.0726231 0
-0.0395882 0.113726 0
-0.0109043 0.0726231 0
-0.0395882 0.113726 0
-0.0129312 0.0960552 0
-0.0431357 0.149413 0
-0.00623399 -0.000953614 0
-0.010847 0.00298904 0
-0.00662575 0.00378966 0
-0.0116718 0.00801698 0
-0.00662575 0.00378966 0
-0.0116718 0.00801698 0
-0.00683007 0.00888145 0
-0.0124585 0.0136596 0
-0.00683007 0.00888145 0
-0.0124585 0.0136596 0
-0.00883566 0.0145958 0
-0.0141941 0.0190761 0
-0.00883566 0.0145958 0
-0.0141941 0.0190761 0
-0.00794032 0.0206267 0
-0.0161366 0.0264874 0
-0.00794032 0.0206267 0
-0.0161366 0.0264874 0
-0.013337 0.0286448 0
-0.0238922 0.0373681 0
-0.013337 0.0286448 0
-0.0238922 0.0373681 0
-0.0142251 0.0387163 0
-0.0357375 0.0592122 0
-0.0142251 0.0387163 0
-0.0357375 0.0592122 0
-0.0234482 0.0549755 0
-0.0577127 0.098921 0
-0.0234482 0.0549755 0
-0.0577127 0.098921 0
-0.0314862 0.0807543 0
-0.072599 0.148308 0
-0.0314862 0.0807543 0
-0.072599 0.148308 0
-0.0395882 0.113726 0
-0.0824941 0.19925 0
-0.0395882 0.113726 0
-0.0824941 0.19925 0
-0.0431357 0.149413 0
-0.0795905 0.242762 0
0.0461341 0.199133 0
0.0702808 0.275887 0
0.0481863 0.169406 0
0.0789259 0.250769 0
0.0481863 0.169406 0
0.0789259 0.250769 0
0.0449372 0.133654 0
0.0822403 0.218522 0
0.0449372 0.133654 0
0.0822403 0.218522 0
0.0366035 0.0934768 0
0.0787448 0.179321 0
0.0366035 0.0934768 0
0.0787448 0.179321 0
0.0249673 0.0541063 0
0.0673297 0.134273 0
0.0249673 0.0541063 0
0.0673297 0.134273 0
0.014686 0.0233742 0
0.0499644 0.0874147 0
0.014686 0.0233742 0
0.0499644 0.0874147 0
0.00621326 0.00510848 0
0.0308622 0.0457883 0
0.00621326 0.00510848 0
0.0308622 0.0457883 0
0.00444056 -0.00427931 0
0.0170169 0.0179384 0
0.00444056 -0.00427931 0
0.0170169 0.0179384 0
0.012506 -0.00372339 0
0.0102973 0.00696013 0
-0.010847 0.00298904 0
-0.0160185 0.00749329 0
-0.0116718 0.00801698 0
-0.0168765 0.0126288 0
-0.0116718 0.00801698 0
-0.0168765 0.0126288 0
-0.0124585 0.0136596 0
-0.0187386 0.0181511 0
-0.0124585 0.0136596 0
-0.0187386 0.0181511 0
-0.0141941 0.0190761 0
-0.0199545 0.0245289 0
-0.0141941 0.0190761 0
-0.0199545 0.0245289 0
-0.0161366 0.0264874 0
-0.0292564 0.0354671 0
-0.0161366 0.0264874 0
-0.0292564 0.0354671 0
-0.0238922 0.0373681 0
-0.0486563 0.0621961 0
-0.0238922 0.0373681 0
-0.0486563 0.0621961 0
-0.0357375 0.0592122 0
-0.0851326 0.113792 0
-0.0357375 0.0592122 0
-0.0851326 0.113792 0
-0.0577127 0.098921 0
-0.110344 0.175817 0
-0.0577127 0.098921 0
-0.110344 0.175817 0
-0.072599 0.148308 0
-0.125952 0.23165 0
-0.072599 0.148308 0
-0.125952 0.23165 0
-0.0824941 0.19925 0
-0.119026 0.270321 0
-0.0824941 0.19925 0
-0.119026 0.270321 0
-0.0795905 0.242762 0
-0.104077 0.287558 0
-0.00520748 0.31465 0
-0.00677759 0.301907 0
0.0117562 0.314842 0
0.0116938 0.303491 0
0.0117562 0.314842 0
0.0116938 0.303491 0
0.0282862 0.312077 0
0.0300405 0.304728 0
0.0282862 0.312077 0
0.0300405 0.304728 0
0.0439064 0.305434 0
0.0484983 0.305265 0
0.0439064 0.305434 0
0.0484983 0.305265 0
0.0583775 0.293832 0
0.0667278 0.304227 0
0.0583775 0.293832 0
0.0667278 0.304227 0
0.0702808 0.275887 0
0.0843202 0.300183 0
0.0702808 0.275887 0
0.0843202 0.300183 0
0.0789259 0.250769 0
0.0997813 0.290858 0
0.0789259 0.250769 0
0.0997813 0.290858 0
0.0822403 0.218522 0
0.111286 0.273672 0
0.0822403 0.218522 0
0.111286 0.273672 0
0.0787448 0.179321 0
0.116268 0.246713 0
0.0787448 0.179321 0
0.116268 0.246713 0
0.0673297 0.134273 0
0.112411 0.209506 0
0.0673297 0.134273 0
0.112411 0.209506 0
0.0499644 0.0874147 0
0.098017 0.163475 0
0.0499644 0.0874147 0
0.098017 0.163475 0
0.0308622 0.0457883 0
0.0749242 0.113156 0
0.0308622 0.0457883 0
0.0749242 0.113156 0
0.0170169 0.0179384 0
0.0473074 0.0667066 0
0.0170169 0.0179384 0
0.0473074 0.0667066 0
0.0102973 0.00696013 0
0.0233585 0.0343212 0
-0.0160185 0.00749329 0
-0.0214996 0.0118247 0
-0.0168765 0.0126288 0
-0.0221 0.0171731 0
-0.0168765 0.0126288 0
-0.0221 0.0171731 0
-0.0187386 0.0181511 0
-0.0252298 0.0230658 0
-0.0187386 0.0181511 0
-0.0252298 0.0230658 0
-0.0199545 0.0245289 0
-0.0293895 0.0323808 0
-0.0199545 0.0245289 0
-0.0293895 0.0323808 0
-0.0292564 0.0354671 0
-0.0583826 0.0595124 0
-0.0292564 0.0354671 0
-0.0583826 0.0595124 0
-0.0486563 0.0621961 0
-0.105366 0.118246 0
-0.0486563 0.0621961 0
-0.105366 0.118246 0
-0.0851326 0.113792 0
-0.150422 0.188156 0
-0.0851326 0.113792 0
-0.150422 0.188156 0
-0.110344 0.175817 0
-0.162118 0.243074 0
-0.119026 0.270321 0
-0.130819 0.265247 0
-0.104077 0.287558 0
-0.108525 0.264444 0
-0.104077 0.287558 0
-0.108525 0.264444 0
-0.0853067 0.29417 0
-0.0864029 0.263342 0
-0.0853067 0.29417 0
-0.0864029 0.263342 0
-0.0646939 0.296543 0
-0.0660931 0.263368 0
-0.0646939 0.296543 0
-0.0660931 0.263368 0
-0.0450768 0.298 0
-0.0460631 0.264217 0
-0.0450768 0.298 0
-0.0460631 0.264217 0
-0.0253498 0.299496 0
-0.0274434 0.265613 0
-0.0253498 0.299496 0
-0.0274434 0.265613 0
-0.00677759 0.301907 0
-0.00858574 0.267 0
-0.00677759 0.301907 0
-0.00858574 0.267 0
0.0116938 0.303491 0
0.00989127 0.268794 0
0.0116938 0.303491 0
0.00989127 0.268794 0
0.0300405 0.304728 0
0.028384 0.270788 0
0.0300405 0.304728 0
0.028384 0.270788 0
0.0484983 0.305265 0
0.0471512 0.273039 0
0.0484983 0.305265 0
0.0471512 0.273039 0
0.0667278 0.304227 0
0.0663469 0.275615 0
0.0667278 0.304227 0
0.0663469 0.275615 0
0.0843202 0.300183 0
0.0859999 0.278252 0
0.0843202 0.300183 0
0.0859999 0.278252 0
0.0997813 0.290858 0
0.105698 0.279969 0
0.0997813 0.290858 0
0.105698 0.279969 0
0.111286 0.273672 0
0.124164 0.278492 0
0.111286 0.273672 0
0.124164 0.278492 0
0.116268 0.246713 0
0.138806 0.270271 0
0.116268 0.246713 0
0.138806 0.270271 0
0.112411 0.209506 0
0.146147 0.251507 0
0.112411 0.209506 0
0.146147 0.251507 0
0.098017 0.163475 0
0.142064 0.22003 0
0.098017 0.163475 0
0.142064 0.22003 0
0.0749242 0.113156 0
0.124639 0.176789 0
0.0749242 0.113156 0
0.124639 0.176789 0
0.0473074 0.0667066 0
0.094018 0.126907 0
0.0473074 0.0667066 0
0.094018 0.126907 0
0.0233585 0.0343212 0
0.0563684 0.079509 0
0.0233585 0.0343212 0
0.0563684 0.079509 0
-0.00706755 0.0163235 0
0.015999 0.0414406 0
-0.0214996 0.0118247 0
-0.0271503 0.0155684 0
-0.0221 0.0171731 0
-0.0276553 0.0213661 0
-0.0221 0.0171731 0
-0.0276553 0.0213661 0
-0.0252298 0.0230658 0
-0.0321673 0.027865 0
-0.0252298 0.0230658 0
-0.0321673 0.027865 0
-0.0293895 0.0323808 0
-0.0535383 0.0495742 0
-0.0293895 0.0323808 0
-0.0535383 0.0495742 0
-0.0583826 0.0595124 0
-0.12022 0.108109 0
-0.0583826 0.0595124 0
-0.12022 0.108109 0
-0.105366 0.118246 0
-0.176934 0.182759 0
-0.150168 0.258283 0
-0.154716 0.237999 0
-0.130819 0.265247 0
-0.129999 0.23483 0
-0.130819 0.265247 0
-0.129999 0.23483 0
-0.108525 0.264444 0
-0.107615 0.233667 0
-0.108525 0.264444 0
-0.107615 0.233667 0
-0.0864029 0.263342 0
-0.087052 0.234333 0
-0.0864029 0.263342 0
-0.087052 0.234333 0
-0.0660931 0.263368 0
-0.0671622 0.235876 0
-0.0660931 0.263368 0
-0.0671622 0.235876 0
-0.0460631 0.264217 0
-0.0478902 0.23778 0
-0.0460631 0.264217 0
-0.0478902 0.23778 0
-0.0274434 0.265613 0
-0.0289932 0.239625 0
-0.0274434 0.265613 0
-0.0289932 0.239625 0
-0.00858574 0.267 0
-0.0102731 0.24138 0
-0.00858574 0.267 0
-0.0102731 0.24138 0
0.00989127 0.268794 0
0.00825083 0.242794 0
0.00989127 0.268794 0
0.00825083 0.242794 0
0.028384 0.270788 0
0.0267043 0.243974 0
0.028384 0.270788 0
0.0267043 0.243974 0
0.0471512 0.273039 0
0.0453389 0.245045 0
0.0471512 0.273039 0
0.0453389 0.245045 0
0.0663469 0.275615 0
0.0641653 0.246251 0
0.0663469 0.275615 0
0.0641653 0.246251 0
0.0859999 0.278252 0
0.0835898 0.247976 0
0.0859999 0.278252 0
0.0835898 0.247976 0
0.105698 0.279969 0
0.103577 0.250555 0
0.105698 0.279969 0
0.103577 0.250555 0
0.124164 0.278492 0
0.124335 0.253799 0
0.124164 0.278492 0
0.124335 0.253799 0
0.138806 0.270271 0
0.144527 0.256048 0
0.138806 0.270271 0
0.144527 0.256048 0
0.146147 0.251507 0
0.161716 0.253573 0
0.146147 0.251507 0
0.161716 0.253573 0
0.142064 0.22003 0
0.170506 0.241218 0
0.142064 0.22003 0
0.170506 0.241218 0
0.124639 0.176789 0
0.165698 0.215148 0
0.124639 0.176789 0
0.165698 0.215148 0
0.094018 0.126907 0
0.142864 0.175296 0
0.094018 0.126907 0
0.142864 0.175296 0
0.0563684 0.079509 0
0.102979 0.127232 0
0.0563684 0.079509 0
0.102979 0.127232 0
0.015999 0.0414406 0
0.0544646 0.0802128 0
-0.193296 0.22503 0
-0.201957 0.213412 0
-0.176672 0.235857 0
-0.177108 0.211687 0
-0.176672 0.235857 0
-0.177108 0.211687 0
-0.154716 0.237999 0
-0.151642 0.207002 0
-0.154716 0.237999 0
-0.151642 0.207002 0
-0.129999 0.23483 0
-0.129286 0.206357 0
-0.129999 0.23483 0
-0.129286 0.206357 0
-0.107615 0.233667 0
-0.108715 0.207843 0
-0.107615 0.233667 0
-0.108715 0.207843 0
-0.087052 0.234333 0
-0.0886833 0.209835 0
-0.087052 0.234333 0
-0.0886833 0.209835 0
-0.0671622 0.235876 0
-0.0690527 0.211754 0
-0.0671622 0.235876 0
-0.0690527 0.211754 0
-0.0478902 0.23778 0
-0.0496538 0.213441 0
-0.0478902 0.23778 0
-0.0496538 0.213441 0
-0.0289932 0.239625 0
-0.0307063 0.215005 0
-0.0289932 0.239625 0
-0.0307063 0.215005 0
-0.0102731 0.24138 0
-0.0118132 0.216462 0
-0.0102731 0.24138 0
-0.0118132 0.216462 0
0.00825083 0.242794 0
0.00686766 0.217899 0
0.00825083 0.242794 0
0.00686766 0.217899 0
0.0267043 0.243974 0
0.0254704 0.219265 0
0.0267043 0.243974 0
0.0254704 0.219265 0
0.0453389 0.245045 0
0.0441792 0.220511 0
0.0453389 0.245045 0
0.0441792 0.220511 0
0.0641653 0.246251 0
0.0629541 0.22159 0
0.0641653 0.246251 0
0.0629541 0.22159 0
0.0835898 0.247976 0
0.0819964 0.222559 0
0.0835898 0.247976 0
0.0819964 0.222559 0
0.103577 0.250555 0
0.10133 0.223688 0
0.103577 0.250555 0
0.10133 0.223688 0
0.124335 0.253799 0
0.121332 0.225524 0
0.124335 0.253799 0
0.121332 0.225524 0
0.144527 0.256048 0
0.142176 0.228473 0
0.144527 0.256048 0
0.142176 0.228473 0
0.161716 0.253573 0
0.163216 0.231671 0
0.161716 0.253573 0
0.163216 0.231671 0
0.170506 0.241218 0
0.181456 0.231584 0
0.170506 0.241218 0
0.181456 0.231584 0
0.165698 0.215148 0
0.190206 0.222277 0
0.165698 0.215148 0
0.190206 0.222277 0
0.142864 0.175296 0
0.181953 0.198691 0
0.142864 0.175296 0
0.181953 0.198691 0
0.102979 0.127232 0
0.150405 0.16032 0
0.102979 0.127232 0
0.150405 0.16032 0
0.0544646 0.0802128 0
0.100664 0.113661 0
-0.218959 0.203779 0
-0.227279 0.189408 0
-0.201957 0.213412 0
-0.199648 0.185852 0
-0.201957 0.213412 0
-0.199648 0.185852 0
-0.177108 0.211687 0
-0.17353 0.181544 0
-0.177108 0.211687 0
-0.17353 0.181544 0
-0.151642 0.207002 0
-0.151648 0.1825 0
-0.151642 0.207002 0
-0.151648 0.1825 0
-0.129286 0.206357 0
-0.130813 0.184566 0
-0.129286 0.206357 0
-0.130813 0.184566 0
-0.108715 0.207843 0
-0.110342 0.186125 0
-0.108715 0.207843 0
-0.110342 0.186125 0
-0.0886833 0.209835 0
-0.0902328 0.187247 0
-0.0886833 0.209835 0
-0.0902328 0.187247 0
-0.0690527 0.211754 0
-0.070442 0.188237 0
-0.0690527 0.211754 0
-0.070442 0.188237 0
-0.0496538 0.213441 0
-0.051063 0.189318 0
-0.0496538 0.213441 0
-0.051063 0.189318 0
-0.0307063 0.215005 0
-0.0320759 0.19051 0
-0.0307063 0.215005 0
-0.0320759 0.19051 0
-0.0118132 0.216462 0
-0.0131974 0.191805 0
-0.0118132 0.216462 0
-0.0131974 0.191805 0
0.00686766 0.217899 0
0.00544699 0.193147 0
0.00686766 0.217899 0
0.00544699 0.193147 0
0.0254704 0.219265 0
0.0241233 0.194524 0
0.0254704 0.219265 0
0.0241233 0.194524 0
0.0441792 0.220511 0
0.0428454 0.195924 0
0.0441792 0.220511 0
0.0428454 0.195924 0
0.0629541 0.22159 0
0.0617887 0.197309 0
0.0629541 0.22159 0
0.0617887 0.197309 0
0.0819964 0.222559 0
0.0808591 0.198594 0
0.0819964 0.222559 0
0.0808591 0.198594 0
0.10133 0.223688 0
0.100195 0.199689 0
0.10133 0.223688 0
0.100195 0.199689 0
0.121332 0.225524 0
0.119599 0.200642 0
0.121332 0.225524 0
0.119599 0.200642 0
0.142176 0.228473 0
0.139593 0.201915 0
0.142176 0.228473 0
0.139593 0.201915 0
0.163216 0.231671 0
0.160254 0.204132 0
0.163216 0.231671 0
0.160254 0.204132 0
0.181456 0.231584 0
0.181671 0.206877 0
0.181456 0.231584 0
0.181671 0.206877 0
0.190206 0.222277 0
0.199598 0.20656 0
0.190206 0.222277 0
0.199598 0.20656 0
0.181953 0.198691 0
0.206132 0.19665 0
0.181953 0.198691 0
0.206132 0.19665 0
0.150405 0.16032 0
0.189848 0.171565 0
0.150405 0.16032 0
0.189848 0.171565 0
0.100664 0.113661 0
0.147793 0.131595 0
-0.240846 0.17761 0
-0.252127 0.165959 0
-0.227279 0.189408 0
-0.223954 0.162189 0
-0.227279 0.189408 0
-0.223954 0.162189 0
-0.199648 0.185852 0
-0.196101 0.158754 0
-0.199648 0.185852 0
-0.196101 0.158754 0
-0.17353 0.181544 0
-0.174055 0.159909 0
-0.17353 0.181544 0
-0.174055 0.159909 0
-0.151648 0.1825 0
-0.153023 0.160901 0
-0.151648 0.1825 0
-0.153023 0.160901 0
-0.130813 0.184566 0
-0.13197 0.161433 0
-0.130813 0.184566 0
-0.13197 0.161433 0
-0.110342 0.186125 0
-0.111319 0.16203 0
-0.110342 0.186125 0
-0.111319 0.16203 0
-0.0902328 0.187247 0
-0.0911795 0.162843 0
-0.0902328 0.187247 0
-0.0911795 0.162843 0
-0.070442 0.188237 0
-0.0715011 0.163866 0
-0.070442 0.188237 0
-0.0715011 0.163866 0
-0.051063 0.189318 0
-0.0522337 0.165007 0
-0.051063 0.189318 0
-0.0522337 0.165007 0
-0.0320759 0.19051 0
-0.0333232 0.166231 0
-0.0320759 0.19051 0
-0.0333232 0.166231 0
-0.0131974 0.191805 0
-0.014519 0.167514 0
-0.0131974 0.191805 0
-0.014519 0.167514 0
0.00544699 0.193147 0
0.00407669 0.168858 0
0.00544699 0.193147 0
0.00407669 0.168858 0
0.0241233 0.194524 0
0.0227195 0.170249 0
0.0241233 0.194524 0
0.0227195 0.170249 0
0.0428454 0.195924 0
0.0414139 0.171671 0
0.0428454 0.195924 0
0.0414139 0.171671 0
0.0617887 0.197309 0
0.0603743 0.173116 0
0.0617887 0.197309 0
0.0603743 0.173116 0
0.0808591 0.198594 0
0.0795308 0.174551 0
0.0808591 0.198594 0
0.0795308 0.174551 0
0.100195 0.199689 0
0.0990542 0.175901 0
0.100195 0.199689 0
0.0990542 0.175901 0
0.119599 0.200642 0
0.118663 0.176996 0
0.119599 0.200642 0
0.118663 0.176996 0
0.139593 0.201915 0
0.138472 0.177742 0
0.139593 0.201915 0
0.138472 0.177742 0
0.160254 0.204132 0
0.158409 0.178431 0
0.160254 0.204132 0
0.158409 0.178431 0
0.181671 0.206877 0
0.179408 0.179712 0
0.181671 0.206877 0
0.179408 0.179712 0
0.199598 0.20656 0
0.200817 0.181027 0
0.199598 0.20656 0
0.200817 0.181027 0
0.206132 0.19665 0
0.217689 0.178159 0
0.206132 0.19665 0
0.217689 0.178159 0
0.189848 0.171565 0
0.217813 0.163923 0
0.189848 0.171565 0
0.217813 0.163923 0
0.147793 0.131595 0
0.190133 0.133563 0
-0.252127 0.165959 0
-0.250538 0.139743 0
-0.223954 0.162189 0
-0.220241 0.137842 0
-0.223954 0.162189 0
-0.220241 0.137842 0
-0.196101 0.158754 0
-0.196254 0.137476 0
-0.196101 0.158754 0
-0.196254 0.137476 0
-0.174055 0.159909 0
-0.175034 0.137368 0
-0.174055 0.159909 0
-0.175034 0.137368 0
-0.153023 0.160901 0
-0.153824 0.138116 0
-0.153023 0.160901 0
-0.153824 0.138116 0
-0.13197 0.161433 0
-0.132659 0.139003 0
-0.13197 0.161433 0
-0.132659 0.139003 0
-0.111319 0.16203 0
-0.11202 0.13972 0
-0.111319 0.16203 0
-0.11202 0.13972 0
-0.0911795 0.162843 0
-0.0920198 0.140413 0
-0.0911795 0.162843 0
-0.0920198 0.140413 0
-0.0715011 0.163866 0
-0.0724484 0.141174 0
-0.0715011 0.163866 0
-0.0724484 0.141174 0
-0.0522337 0.165007 0
-0.053316 0.142063 0
-0.0522337 0.165007 0
-0.053316 0.142063 0
-0.0333232 0.166231 0
-0.0344711 0.143088 0
-0.0333232 0.166231 0
-0.0344711 0.143088 0
-0.014519 0.167514 0
-0.0157866 0.144249 0
-0.014519 0.167514 0
-0.0157866 0.144249 0
0.00407669 0.168858 0
0.00275148 0.145521 0
0.00407669 0.168858 0
0.00275148 0.145521 0
0.0227195 0.170249 0
0.0213141 0.146882 0
0.0227195 0.170249 0
0.0213141 0.146882 0
0.0414139 0.171671 0
0.039997 0.1483 0
0.0414139 0.171671 0
0.039997 0.1483 0
0.0603743 0.173116 0
0.0589181 0.14974 0
0.0603743 0.173116 0
0.0589181 0.14974 0
0.0795308 0.174551 0
0.0781391 0.151161 0
0.0795308 0.174551 0
0.0781391 0.151161 0
0.0990542 0.175901 0
0.0977439 0.152511 0
0.0990542 0.175901 0
0.0977439 0.152511 0
0.118663 0.176996 0
0.1177 0.153687 0
0.118663 0.176996 0
0.1177 0.153687 0
0.138472 0.177742 0
0.137895 0.154468 0
0.138472 0.177742 0
0.137895 0.154468 0
0.158409 0.178431 0
0.1581 0.154654 0
0.158409 0.178431 0
0.1581 0.154654 0
0.179408 0.179712 0
0.178586 0.154463 0
0.179408 0.179712 0
0.178586 0.154463 0
0.200817 0.181027 0
0.200345 0.154413 0
0.200817 0.181027 0
0.200345 0.154413 0
0.217689 0.178159 0
0.222238 0.153172 0
0.217689 0.178159 0
0.222238 0.153172 0
0.217813 0.163923 0
0.235602 0.145269 0
0.217813 0.163923 0
0.235602 0.145269 0
0.190133 0.133563 0
0.22435 0.123659 0
-0.275313 0.138162 0
-0.27933 0.118452 0
-0.250538 0.139743 0
-0.246828 0.117062 0
-0.250538 0.139743 0
-0.246828 0.117062 0
-0.220241 0.137842 0
-0.218935 0.113899 0
-0.220241 0.137842 0
-0.218935 0.113899 0
-0.196254 0.137476 0
-0.19706 0.113793 0
-0.196254 0.137476 0
-0.19706 0.113793 0
-0.175034 0.137368 0
-0.175981 0.115623 0
-0.175034 0.137368 0
-0.175981 0.115623 0
-0.153824 0.138116 0
-0.154322 0.116336 0
-0.153824 0.138116 0
-0.154322 0.116336 0
-0.132659 0.139003 0
-0.1331 0.116409 0
-0.132659 0.139003 0
-0.1331 0.116409 0
-0.11202 0.13972 0
-0.112597 0.116713 0
-0.11202 0.13972 0
-0.112597 0.116713 0
-0.0920198 0.140413 0
-0.0927214 0.117313 0
-0.0920198 0.140413 0
-0.0927214 0.117313 0
-0.0724484 0.141174 0
-0.0732949 0.118115 0
-0.0724484 0.141174 0
-0.0732949 0.118115 0
-0.053316 0.142063 0
-0.0542989 0.119063 0
-0.053316 0.142063 0
-0.0542989 0.119063 0
-0.0344711 0.143088 0
-0.0355692 0.120137 0
-0.0344711 0.143088 0
-0.0355692 0.120137 0
-0.0157866 0.144249 0
-0.0170176 0.121331 0
-0.0157866 0.144249 0
-0.0170176 0.121331 0
0.00275148 0.145521 0
0.00142797 0.122636 0
0.00275148 0.145521 0
0.00142797 0.122636 0
0.0213141 0.146882 0
0.0198999 0.124035 0
0.0213141 0.146882 0
0.0198999 0.124035 0
0.039997 0.1483 0
0.0385541 0.125497 0
0.039997 0.1483 0
0.0385541 0.125497 0
0.0589181 0.14974 0
0.0574581 0.126977 0
0.0589181 0.14974 0
0.0574581 0.126977 0
0.0781391 0.151161 0
0.0767522 0.128421 0
0.0781391 0.151161 0
0.0767522 0.128421 0
0.0977439 0.152511 0
0.0964491 0.129762 0
0.0977439 0.152511 0
0.0964491 0.129762 0
0.1177 0.153687 0
0.116675 0.130917 0
0.1177 0.153687 0
0.116675 0.130917 0
0.137895 0.154468 0
0.137328 0.131731 0
0.137895 0.154468 0
0.137328 0.131731 0
0.1581 0.154654 0
0.158312 0.13191 0
0.1581 0.154654 0
0.158312 0.13191 0
0.178586 0.154463 0
0.179277 0.13119 0
0.178586 0.154463 0
0.179277 0.13119 0
0.200345 0.154413 0
0.201054 0.12984 0
0.200345 0.154413 0
0.201054 0.12984 0
0.222238 0.153172 0
0.224628 0.127958 0
0.222238 0.153172 0
0.224628 0.127958 0
0.235602 0.145269 0
0.246568 0.12268 0
0.235602 0.145269 0
0.246568 0.12268 0
0.22435 0.123659 0
0.250219 0.107563 0
-0.27933 0.118452 0
-0.278498 0.0953586 0
-0.246828 0.117062 0
-0.243626 0.0924645 0
-0.246828 0.117062 0
-0.243626 0.0924645 0