# vtk DataFile Version 3.0
#This file was generated by the deal.II library on 2026/3/25 at 11:20:43
ASCII
DATASET UNSTRUCTURED_GRID

POINTS 8020 double
0 0 0
0.03125 0 0
0 0.03125 0
0.03125 0.03125 0
0 0.03125 0
0.03125 0.03125 0
0 0.0625 0
0.03125 0.0625 0
0 0.0625 0
0.03125 0.0625 0
0 0.09375 0
0.03125 0.09375 0
0 0.09375 0
0.03125 0.09375 0
0 0.125 0
0.03125 0.125 0
0 0.125 0
0.03125 0.125 0
0 0.15625 0
0.03125 0.15625 0
0 0.15625 0
0.03125 0.15625 0
0 0.1875 0
0.03125 0.1875 0
0 0.1875 0
0.03125 0.1875 0
0 0.21875 0
0.03125 0.21875 0
0 0.21875 0
0.03125 0.21875 0
0 0.25 0
0.03125 0.25 0
0 0.25 0
0.03125 0.25 0
0 0.28125 0
0.03125 0.28125 0
0 0.28125 0
0.03125 0.28125 0
0 0.3125 0
0.03125 0.3125 0
0.03125 0 0
0.0625 0 0
0.03125 0.03125 0
0.0625 0.03125 0
0.03125 0.03125 0
0.0625 0.03125 0
0.03125 0.0625 0
0.0625 0.0625 0
0.03125 0.0625 0
0.0625 0.0625 0
0.03125 0.09375 0
0.0625 0.09375 0
0.03125 0.09375 0
0.0625 0.09375 0
0.03125 0.125 0
0.0625 0.125 0
0.03125 0.125 0
0.0625 0.125 0
0.03125 0.15625 0
0.0625 0.15625 0
0.03125 0.15625 0
0.0625 0.15625 0
0.03125 0.1875 0
0.0625 0.1875 0
0.03125 0.1875 0
0.0625 0.1875 0
0.03125 0.21875 0
0.0625 0.21875 0
0.03125 0.21875 0
0.0625 0.21875 0
0.03125 0.25 0
0.0625 0.25 0
0.03125 0.25 0
0.0625 0.25 0
0.03125 0.28125 0
0.0625 0.28125 0
0.03125 0.28125 0
0.0625 0.28125 0
0.03125 0.3125 0
0.0625 0.3125 0
0.0625 0 0
0.09375 0 0
0.0625 0.03125 0
0.09375 0.03125 0
0.0625 0.03125 0
0.09375 0.03125 0
0.0625 0.0625 0
0.09375 0.0625 0
0.0625 0.0625 0
0.09375 0.0625 0
0.0625 0.09375 0
0.09375 0.09375 0
0.0625 0.09375 0
0.09375 0.09375 0
0.0625 0.125 0
0.09375 0.125 0
0.0625 0.125 0
0.09375 0.125 0
0.0625 0.15625 0
0.09375 0.15625 0
0.0625 0.15625 0
0.09375 0.15625 0
0.0625 0.1875 0
0.09375 0.1875 0
0.0625 0.1875 0
0.09375 0.1875 0
0.0625 0.21875 0
0.09375 0.21875 0
0.0625 0.21875 0
0.09375 0.21875 0
0.0625 0.25 0
0.09375 0.25 0
0.0625 0.25 0
0.09375 0.25 0
0.0625 0.28125 0
0.09375 0.28125 0
0.0625 0.28125 0
0.09375 0.28125 0
0.0625 0.3125 0
0.09375 0.3125 0
0.0625 0.625 0
0.09375 0.625 0
0.0625 0.65625 0
0.09375 0.65625 0
0.0625 0.65625 0
0.09375 0.65625 0
0.0625 0.6875 0
0.09375 0.6875 0
0.0625 0.6875 0
0.09375 0.6875 0
0.0625 0.71875 0
0.09375 0.71875 0
0.0625 0.71875 0
0.09375 0.71875 0
0.0625 0.75 0
0.09375 0.75 0
0.0625 0.75 0
0.09375 0.75 0
0.0625 0.78125 0
0.09375 0.78125 0
0.0625 0.78125 0
0.09375 0.78125 0
0.0625 0.8125 0
0.09375 0.8125 0
0.0625 0.8125 0
0.09375 0.8125 0
0.0625 0.84375 0
0.09375 0.84375 0
0.0625 0.84375 0
0.09375 0.84375 0
0.0625 0.875 0
0.09375 0.875 0
0.09375 0 0
0.125 0 0
0.09375 0.03125 0
0.125 0.03125 0
0.09375 0.03125 0
0.125 0.03125 0
0.09375 0.0625 0
0.125 0.0625 0
0.09375 0.0625 0
0.125 0.0625 0
0.09375 0.09375 0
0.125 0.09375 0
0.09375 0.09375 0
0.125 0.09375 0
0.09375 0.125 0
0.125 0.125 0
0.09375 0.125 0
0.125 0.125 0
0.09375 0.15625 0
0.125 0.15625 0
0.09375 0.15625 0
0.125 0.15625 0
0.09375 0.1875 0
0.125 0.1875 0
0.09375 0.1875 0
0.125 0.1875 0
0.09375 0.21875 0
0.125 0.21875 0
0.09375 0.21875 0
0.125 0.21875 0
0.09375 0.25 0
0.125 0.25 0
0.09375 0.25 0
0.125 0.25 0
0.09375 0.28125 0
0.125 0.28125 0
0.09375 0.28125 0
0.125 0.28125 0
0.09375 0.3125 0
0.125 0.3125 0
0.09375 0.46875 0
0.125 0.46875 0
0.09375 0.5 0
0.125 0.5 0
0.09375 0.5 0
0.125 0.5 0
0.09375 0.53125 0
0.125 0.53125 0
0.09375 0.53125 0
0.125 0.53125 0
0.09375 0.5625 0
0.125 0.5625 0
0.09375 0.5625 0
0.125 0.5625 0
0.09375 0.59375 0
0.125 0.59375 0
0.09375 0.59375 0
0.125 0.59375 0
0.09375 0.625 0
0.125 0.625 0
0.09375 0.625 0
0.125 0.625 0
0.09375 0.65625 0
0.125 0.65625 0
0.09375 0.65625 0
0.125 0.65625 0
0.09375 0.6875 0
0.125 0.6875 0
0.09375 0.6875 0
0.125 0.6875 0
0.09375 0.71875 0
0.125 0.71875 0
0.09375 0.71875 0
0.125 0.71875 0
0.09375 0.75 0
0.125 0.75 0
0.09375 0.75 0
0.125 0.75 0
0.09375 0.78125 0
0.125 0.78125 0
0.09375 0.78125 0
0.125 0.78125 0
0.09375 0.8125 0
0.125 0.8125 0
0.09375 0.8125 0
0.125 0.8125 0
0.09375 0.84375 0
0.125 0.84375 0
0.09375 0.84375 0
0.125 0.84375 0
0.09375 0.875 0
0.125 0.875 0
0.125 0 0
0.15625 0 0
0.125 0.03125 0
0.15625 0.03125 0
0.125 0.03125 0
0.15625 0.03125 0
0.125 0.0625 0
0.15625 0.0625 0
0.125 0.0625 0
0.15625 0.0625 0
0.125 0.09375 0
0.15625 0.09375 0
0.125 0.09375 0
0.15625 0.09375 0
0.125 0.125 0
0.15625 0.125 0
0.125 0.125 0
0.15625 0.125 0
0.125 0.15625 0
0.15625 0.15625 0
0.125 0.15625 0
0.15625 0.15625 0
0.125 0.1875 0
0.15625 0.1875 0
0.125 0.1875 0
0.15625 0.1875 0
0.125 0.21875 0
0.15625 0.21875 0
0.125 0.28125 0
0.15625 0.28125 0
0.125 0.3125 0
0.15625 0.3125 0
0.125 0.3125 0
0.15625 0.3125 0
0.125 0.34375 0
0.15625 0.34375 0
0.125 0.34375 0
0.15625 0.34375 0
0.125 0.375 0
0.15625 0.375 0
0.125 0.375 0
0.15625 0.375 0
0.125 0.40625 0
0.15625 0.40625 0
0.125 0.40625 0
0.15625 0.40625 0
0.125 0.4375 0
0.15625 0.4375 0
0.125 0.4375 0
0.15625 0.4375 0
0.125 0.46875 0
0.15625 0.46875 0
0.125 0.46875 0
0.15625 0.46875 0
0.125 0.5 0
0.15625 0.5 0
0.125 0.5 0
0.15625 0.5 0
0.125 0.53125 0
0.15625 0.53125 0
0.125 0.53125 0
0.15625 0.53125 0
0.125 0.5625 0
0.15625 0.5625 0
0.125 0.5625 0
0.15625 0.5625 0
0.125 0.59375 0
0.15625 0.59375 0
0.125 0.59375 0
0.15625 0.59375 0
0.125 0.625 0
0.15625 0.625 0
0.125 0.625 0
0.15625 0.625 0
0.125 0.65625 0
0.15625 0.65625 0
0.125 0.65625 0
0.15625 0.65625 0
0.125 0.6875 0
0.15625 0.6875 0
0.125 0.6875 0
0.15625 0.6875 0
0.125 0.71875 0
0.15625 0.71875 0
0.125 0.71875 0
0.15625 0.71875 0
0.125 0.75 0
0.15625 0.75 0
0.125 0.75 0
0.15625 0.75 0
0.125 0.78125 0
0.15625 0.78125 0
0.125 0.78125 0
0.15625 0.78125 0
0.125 0.8125 0
0.15625 0.8125 0
0.125 0.8125 0
0.15625 0.8125 0
0.125 0.84375 0
0.15625 0.84375 0
0.125 0.84375 0
0.15625 0.84375 0
0.125 0.875 0
0.15625 0.875 0
0.125 0.875 0
0.15625 0.875 0
0.125 0.90625 0
0.15625 0.90625 0
0.15625 0 0
0.1875 0 0
0.15625 0.03125 0
0.1875 0.03125 0
0.15625 0.03125 0
0.1875 0.03125 0
0.15625 0.0625 0
0.1875 0.0625 0
0.15625 0.0625 0
0.1875 0.0625 0
0.15625 0.09375 0
0.1875 0.09375 0
0.15625 0.09375 0
0.1875 0.09375 0
0.15625 0.125 0
0.1875 0.125 0
0.15625 0.125 0
0.1875 0.125 0
0.15625 0.15625 0
0.1875 0.15625 0
0.15625 0.25 0
0.1875 0.25 0
0.15625 0.28125 0
0.1875 0.28125 0
0.15625 0.28125 0
0.1875 0.28125 0
0.15625 0.3125 0
0.1875 0.3125 0
0.15625 0.3125 0
0.1875 0.3125 0
0.15625 0.34375 0
0.1875 0.34375 0
0.15625 0.34375 0
0.1875 0.34375 0
0.15625 0.375 0
0.1875 0.375 0
0.15625 0.375 0
0.1875 0.375 0
0.15625 0.40625 0
0.1875 0.40625 0
0.15625 0.40625 0
0.1875 0.40625 0
0.15625 0.4375 0
0.1875 0.4375 0
0.15625 0.4375 0
0.1875 0.4375 0
0.15625 0.46875 0
0.1875 0.46875 0
0.15625 0.46875 0
0.1875 0.46875 0
0.15625 0.5 0
0.1875 0.5 0
0.15625 0.5 0
0.1875 0.5 0
0.15625 0.53125 0
0.1875 0.53125 0
0.15625 0.53125 0
0.1875 0.53125 0
0.15625 0.5625 0
0.1875 0.5625 0
0.15625 0.5625 0
0.1875 0.5625 0
0.15625 0.59375 0
0.1875 0.59375 0
0.15625 0.59375 0
0.1875 0.59375 0
0.15625 0.625 0
0.1875 0.625 0
0.15625 0.625 0
0.1875 0.625 0
0.15625 0.65625 0
0.1875 0.65625 0
0.15625 0.65625 0
0.1875 0.65625 0
0.15625 0.6875 0
0.1875 0.6875 0
0.15625 0.6875 0
0.1875 0.6875 0
0.15625 0.71875 0
0.1875 0.71875 0
0.15625 0.71875 0
0.1875 0.71875 0
0.15625 0.75 0
0.1875 0.75 0
0.15625 0.75 0
0.1875 0.75 0
0.15625 0.78125 0
0.1875 0.78125 0
0.15625 0.78125 0
0.1875 0.78125 0
0.15625 0.8125 0
0.1875 0.8125 0
0.15625 0.8125 0
0.1875 0.8125 0
0.15625 0.84375 0
0.1875 0.84375 0
0.15625 0.84375 0
0.1875 0.84375 0
0.15625 0.875 0
0.1875 0.875 0
0.15625 0.875 0
0.1875 0.875 0
0.15625 0.90625 0
0.1875 0.90625 0
0.1875 0.1875 0
0.21875 0.1875 0
0.1875 0.21875 0
0.21875 0.21875 0
0.1875 0.21875 0
0.21875 0.21875 0
0.1875 0.25 0
0.21875 0.25 0
0.1875 0.25 0
0.21875 0.25 0
0.1875 0.28125 0
0.21875 0.28125 0
0.1875 0.28125 0
0.21875 0.28125 0
0.1875 0.3125 0
0.21875 0.3125 0
0.1875 0.3125 0
0.21875 0.3125 0
0.1875 0.34375 0
0.21875 0.34375 0
0.1875 0.34375 0
0.21875 0.34375 0
0.1875 0.375 0
0.21875 0.375 0
0.1875 0.375 0
0.21875 0.375 0
0.1875 0.40625 0
0.21875 0.40625 0
0.1875 0.40625 0
0.21875 0.40625 0
0.1875 0.4375 0
0.21875 0.4375 0
0.1875 0.4375 0
0.21875 0.4375 0
0.1875 0.46875 0
0.21875 0.46875 0
0.1875 0.46875 0
0.21875 0.46875 0
0.1875 0.5 0
0.21875 0.5 0
0.1875 0.5 0
0.21875 0.5 0
0.1875 0.53125 0
0.21875 0.53125 0
0.1875 0.53125 0
0.21875 0.53125 0
0.1875 0.5625 0
0.21875 0.5625 0
0.1875 0.5625 0
0.21875 0.5625 0
0.1875 0.59375 0
0.21875 0.59375 0
0.1875 0.59375 0
0.21875 0.59375 0
0.1875 0.625 0
0.21875 0.625 0
0.1875 0.625 0
0.21875 0.625 0
0.1875 0.65625 0
0.21875 0.65625 0
0.1875 0.65625 0
0.21875 0.65625 0
0.1875 0.6875 0
0.21875 0.6875 0
0.1875 0.6875 0
0.21875 0.6875 0
0.1875 0.71875 0
0.21875 0.71875 0
0.1875 0.71875 0
0.21875 0.71875 0
0.1875 0.75 0
0.21875 0.75 0
0.1875 0.75 0
0.21875 0.75 0
0.1875 0.78125 0
0.21875 0.78125 0
0.1875 0.78125 0
0.21875 0.78125 0
0.1875 0.8125 0
0.21875 0.8125 0
0.1875 0.8125 0
0.21875 0.8125 0
0.1875 0.84375 0
0.21875 0.84375 0
0.1875 0.84375 0
0.21875 0.84375 0
0.1875 0.875 0
0.21875 0.875 0
0.1875 0.875 0
0.21875 0.875 0
0.1875 0.90625 0
0.21875 0.90625 0
0.21875 0.15625 0
0.25 0.15625 0
0.21875 0.1875 0
0.25 0.1875 0
0.21875 0.1875 0
0.25 0.1875 0
0.21875 0.21875 0
0.25 0.21875 0
0.21875 0.21875 0
0.25 0.21875 0
0.21875 0.25 0
0.25 0.25 0
0.21875 0.25 0
0.25 0.25 0
0.21875 0.28125 0
0.25 0.28125 0
0.21875 0.28125 0
0.25 0.28125 0
0.21875 0.3125 0
0.25 0.3125 0
0.21875 0.3125 0
0.25 0.3125 0
0.21875 0.34375 0
0.25 0.34375 0
0.21875 0.34375 0
0.25 0.34375 0
0.21875 0.375 0
0.25 0.375 0
0.21875 0.375 0
0.25 0.375 0
0.21875 0.40625 0
0.25 0.40625 0
0.21875 0.40625 0
0.25 0.40625 0
0.21875 0.4375 0
0.25 0.4375 0
0.21875 0.4375 0
0.25 0.4375 0
0.21875 0.46875 0
0.25 0.46875 0
0.21875 0.46875 0
0.25 0.46875 0
0.21875 0.5 0
0.25 0.5 0
0.21875 0.5 0
0.25 0.5 0
0.21875 0.53125 0
0.25 0.53125 0
0.21875 0.53125 0
0.25 0.53125 0
0.21875 0.5625 0
0.25 0.5625 0
0.21875 0.5625 0
0.25 0.5625 0
0.21875 0.59375 0
0.25 0.59375 0
0.21875 0.59375 0
0.25 0.59375 0
0.21875 0.625 0
0.25 0.625 0
0.21875 0.625 0
0.25 0.625 0
0.21875 0.65625 0
[...]
POINT_DATA 8020
VECTORS velocity double
0 0 0
-0.00206512 -0.00349075 0
0 0 0
-0.00229381 0.00040523 0
0 0 0
-0.00229381 0.00040523 0
0 0 0
-0.00234361 0.00422219 0
0 0 0
-0.00234361 0.00422219 0
0 0 0
-0.00303281 0.0088062 0
0 0 0
-0.00303281 0.0088062 0
0 0 0
-0.00273497 0.0135892 0
0 0 0
-0.00273497 0.0135892 0
0 0 0
-0.004547 0.0200375 0
0 0 0
-0.004547 0.0200375 0
0 0 0
-0.00487506 0.0285151 0
0 0 0
-0.00487506 0.0285151 0
0 0 0
-0.00676608 0.0394408 0
0 0 0
-0.00676608 0.0394408 0
0 0 0
-0.00917912 0.0546142 0
0 0 0
-0.00917912 0.0546142 0
0 0 0
-0.0119789 0.0751932 0
0 0 0
-0.0119789 0.0751932 0
0 0 0
-0.0144546 0.101228 0
-0.00206512 -0.00349075 0
-0.00623399 -0.000953614 0
-0.00229381 0.00040523 0
-0.00648432 0.00376281 0
-0.00229381 0.00040523 0
-0.00648432 0.00376281 0
-0.00234361 0.00422219 0
-0.00660747 0.00873734 0
-0.00234361 0.00422219 0
-0.00660747 0.00873734 0
-0.00303281 0.0088062 0
-0.0085726 0.0143629 0
-0.00303281 0.0088062 0
-0.0085726 0.0143629 0
-0.00273497 0.0135892 0
-0.00795362 0.0204636 0
-0.00273497 0.0135892 0
-0.00795362 0.0204636 0
-0.004547 0.0200375 0
-0.0137051 0.0288288 0
-0.004547 0.0200375 0
-0.0137051 0.0288288 0
-0.00487506 0.0285151 0
-0.0146696 0.03951 0
-0.00487506 0.0285151 0
-0.0146696 0.03951 0
-0.00676608 0.0394408 0
-0.0254466 0.0576394 0
-0.00676608 0.0394408 0
-0.0254466 0.0576394 0
-0.00917912 0.0546142 0
-0.034855 0.0871673 0
-0.00917912 0.0546142 0
-0.034855 0.0871673 0
-0.0119789 0.0751932 0
-0.0445894 0.125269 0
-0.0119789 0.0751932 0
-0.0445894 0.125269 0
-0.0144546 0.101228 0
-0.0486412 0.166309 0
-0.00623399 -0.000953614 0
-0.010847 0.00298904 0
-0.00648432 0.00376281 0
-0.0114556 0.00795404 0
-0.00648432 0.00376281 0
-0.0114556 0.00795404 0
-0.00660747 0.00873734 0
-0.0120808 0.0134455 0
-0.00660747 0.00873734 0
-0.0120808 0.0134455 0
-0.0085726 0.0143629 0
-0.0141063 0.0189347 0
-0.0085726 0.0143629 0
-0.0141063 0.0189347 0
-0.00795362 0.0204636 0
-0.0167027 0.0269167 0
-0.00795362 0.0204636 0
-0.0167027 0.0269167 0
-0.0137051 0.0288288 0
-0.0250418 0.0387503 0
-0.0137051 0.0288288 0
-0.0250418 0.0387503 0
-0.0146696 0.03951 0
-0.0393044 0.0638247 0
-0.0146696 0.03951 0
-0.0393044 0.0638247 0
-0.0254466 0.0576394 0
-0.064426 0.109434 0
-0.0254466 0.0576394 0
-0.064426 0.109434 0
-0.034855 0.0871673 0
-0.0816299 0.165358 0
-0.034855 0.0871673 0
-0.0816299 0.165358 0
-0.0445894 0.125269 0
-0.0918739 0.221121 0
-0.0445894 0.125269 0
-0.0918739 0.221121 0
-0.0486412 0.166309 0
-0.087621 0.266112 0
0.0504706 0.223724 0
0.0745419 0.301089 0
0.05326 0.191631 0
0.0849038 0.277546 0
0.05326 0.191631 0
0.0849038 0.277546 0
0.0503206 0.152474 0
0.0898993 0.24551 0
0.0503206 0.152474 0
0.0898993 0.24551 0
0.0412411 0.107834 0
0.0873942 0.204454 0
0.0412411 0.107834 0
0.0873942 0.204454 0
0.0286173 0.0634365 0
0.0759176 0.155427 0
0.0286173 0.0634365 0
0.0759176 0.155427 0
0.0160445 0.0279752 0
0.0570009 0.102632 0
0.0160445 0.0279752 0
0.0570009 0.102632 0
0.00915153 0.00727317 0
0.0361734 0.0553081 0
0.00915153 0.00727317 0
0.0361734 0.0553081 0
0.0199391 0.00155786 0
0.025848 0.0280081 0
0.0199391 0.00155786 0
0.025848 0.0280081 0
0.0218071 0.00592853 0
0.0175974 0.0218912 0
-0.010847 0.00298904 0
-0.0160185 0.00749329 0
-0.0114556 0.00795404 0
-0.0165522 0.0125277 0
-0.0114556 0.00795404 0
-0.0165522 0.0125277 0
-0.0120808 0.0134455 0
-0.0184233 0.0180782 0
-0.0120808 0.0134455 0
-0.0184233 0.0180782 0
-0.0141063 0.0189347 0
-0.0206242 0.0251266 0
-0.0141063 0.0189347 0
-0.0206242 0.0251266 0
-0.0167027 0.0269167 0
-0.0309743 0.0372736 0
-0.0167027 0.0269167 0
-0.0309743 0.0372736 0
-0.0250418 0.0387503 0
-0.0537678 0.0680811 0
-0.0250418 0.0387503 0
-0.0537678 0.0680811 0
-0.0393044 0.0638247 0
-0.0950518 0.126651 0
-0.0393044 0.0638247 0
-0.0950518 0.126651 0
-0.064426 0.109434 0
-0.122872 0.194818 0
-0.064426 0.109434 0
-0.122872 0.194818 0
-0.0816299 0.165358 0
-0.137466 0.252354 0
-0.0816299 0.165358 0
-0.137466 0.252354 0
-0.0918739 0.221121 0
-0.127118 0.287394 0
-0.0918739 0.221121 0
-0.127118 0.287394 0
-0.087621 0.266112 0
-0.109451 0.299259 0
-0.00661982 0.330521 0
-0.00854341 0.307298 0
0.010874 0.331273 0
0.0102792 0.309151 0
0.010874 0.331273 0
0.0102792 0.309151 0
0.0284214 0.329744 0
0.0288228 0.310942 0
0.0284214 0.329744 0
0.0288228 0.310942 0
0.0449899 0.325089 0
0.0478513 0.312509 0
0.0449899 0.325089 0
0.0478513 0.312509 0
0.0611594 0.316138 0
0.0666928 0.313263 0
0.0611594 0.316138 0
0.0666928 0.313263 0
0.0745419 0.301089 0
0.0855789 0.312126 0
0.0745419 0.301089 0
0.0855789 0.312126 0
0.0849038 0.277546 0
0.103011 0.306991 0
0.0849038 0.277546 0
0.103011 0.306991 0
0.0898993 0.24551 0
0.116931 0.294433 0
0.0898993 0.24551 0
0.116931 0.294433 0
0.0873942 0.204454 0
0.124896 0.271479 0
0.0873942 0.204454 0
0.124896 0.271479 0
0.0759176 0.155427 0
0.123307 0.236057 0
0.0759176 0.155427 0
0.123307 0.236057 0
0.0570009 0.102632 0
0.110059 0.188718 0
0.0570009 0.102632 0
0.110059 0.188718 0
0.0361734 0.0553081 0
0.0855089 0.133828 0
0.0361734 0.0553081 0
0.0855089 0.133828 0
0.025848 0.0280081 0
0.0553821 0.0822872 0
0.025848 0.0280081 0
0.0553821 0.0822872 0
0.0175974 0.0218912 0
0.0291399 0.0473468 0
-0.0160185 0.00749329 0
-0.0214996 0.0118247 0
-0.0165522 0.0125277 0
-0.0215777 0.017048 0
-0.0165522 0.0125277 0
-0.0215777 0.017048 0
-0.0184233 0.0180782 0
-0.0258452 0.0235993 0
-0.0184233 0.0180782 0
-0.0258452 0.0235993 0
-0.0206242 0.0251266 0
-0.031093 0.0341673 0
-0.0206242 0.0251266 0
-0.031093 0.0341673 0
-0.0309743 0.0372736 0
-0.0642337 0.0651573 0
-0.0309743 0.0372736 0
-0.0642337 0.0651573 0
-0.0537678 0.0680811 0
-0.117816 0.131215 0
-0.0537678 0.0680811 0
-0.117816 0.131215 0
-0.0950518 0.126651 0
-0.165192 0.206334 0
-0.0950518 0.126651 0
-0.165192 0.206334 0
-0.122872 0.194818 0
-0.174249 0.259578 0
-0.127118 0.287394 0
-0.134873 0.269907 0
-0.109451 0.299259 0
-0.111526 0.268007 0
-0.109451 0.299259 0
-0.111526 0.268007 0
-0.0886455 0.302263 0
-0.0893115 0.267603 0
-0.0886455 0.302263 0
-0.0893115 0.267603 0
-0.0672841 0.30292 0
-0.0687803 0.268902 0
-0.0672841 0.30292 0
-0.0687803 0.268902 0
-0.0470886 0.303769 0
-0.0487211 0.270976 0
-0.0470886 0.303769 0
-0.0487211 0.270976 0
-0.0273208 0.305178 0
-0.0296332 0.273231 0
-0.0273208 0.305178 0
-0.0296332 0.273231 0
-0.00854341 0.307298 0
-0.0105051 0.275155 0
-0.00854341 0.307298 0
-0.0105051 0.275155 0
0.0102792 0.309151 0
0.00834585 0.276878 0
0.0102792 0.309151 0
0.00834585 0.276878 0
0.0288228 0.310942 0
0.02715 0.278354 0
0.0288228 0.310942 0
0.02715 0.278354 0
0.0478513 0.312509 0
0.0461896 0.279775 0
0.0478513 0.312509 0
0.0461896 0.279775 0
0.0666928 0.313263 0
0.0655118 0.281501 0
0.0666928 0.313263 0
0.0655118 0.281501 0
0.0855789 0.312126 0
0.085404 0.283704 0
0.0855789 0.312126 0
0.085404 0.283704 0
0.103011 0.306991 0
0.105676 0.286131 0
0.103011 0.306991 0
0.105676 0.286131 0
0.116931 0.294433 0
0.125616 0.287291 0
0.116931 0.294433 0
0.125616 0.287291 0
0.124896 0.271479 0
0.142864 0.28372 0
0.124896 0.271479 0
0.142864 0.28372 0
0.123307 0.236057 0
0.154089 0.27068 0
0.123307 0.236057 0
0.154089 0.27068 0
0.110059 0.188718 0
0.15374 0.243884 0
0.110059 0.188718 0
0.15374 0.243884 0
0.0855089 0.133828 0
0.138613 0.202261 0
0.0855089 0.133828 0
0.138613 0.202261 0
0.0553821 0.0822872 0
0.106462 0.149752 0
0.0553821 0.0822872 0
0.106462 0.149752 0
0.0291399 0.0473468 0
0.0648244 0.0979711 0
0.0291399 0.0473468 0
0.0648244 0.0979711 0
0.00935959 0.0378341 0
0.0212699 0.0598385 0
-0.0214996 0.0118247 0
-0.0271503 0.0155684 0
-0.0215777 0.017048 0
-0.027239 0.0216104 0
-0.0215777 0.017048 0
-0.027239 0.0216104 0
-0.0258452 0.0235993 0
-0.0342646 0.0290422 0
-0.0258452 0.0235993 0
-0.0342646 0.0290422 0
-0.031093 0.0341673 0
-0.0581871 0.0539285 0
-0.031093 0.0341673 0
-0.0581871 0.0539285 0
-0.0642337 0.0651573 0
-0.134076 0.11949 0
-0.0642337 0.0651573 0
-0.134076 0.11949 0
-0.117816 0.131215 0
-0.193662 0.199169 0
-0.15651 0.266403 0
-0.15851 0.241147 0
-0.134873 0.269907 0
-0.133728 0.238485 0
-0.134873 0.269907 0
-0.133728 0.238485 0
-0.111526 0.268007 0
-0.11183 0.239249 0
-0.111526 0.268007 0
-0.11183 0.239249 0
-0.0893115 0.267603 0
-0.091313 0.241767 0
-0.0893115 0.267603 0
-0.091313 0.241767 0
-0.0687803 0.268902 0
-0.0711551 0.244689 0
-0.0687803 0.268902 0
-0.0711551 0.244689 0
-0.0487211 0.270976 0
-0.0513589 0.247483 0
-0.0487211 0.270976 0
-0.0513589 0.247483 0
-0.0296332 0.273231 0
-0.0317848 0.24988 0
-0.0296332 0.273231 0
-0.0317848 0.24988 0
-0.0105051 0.275155 0
-0.0123919 0.251887 0
-0.0105051 0.275155 0
-0.0123919 0.251887 0
0.00834585 0.276878 0
0.00689005 0.253382 0
0.00834585 0.276878 0
0.00689005 0.253382 0
0.02715 0.278354 0
0.0259697 0.2544 0
0.02715 0.278354 0
0.0259697 0.2544 0
0.0461896 0.279775 0
0.0452051 0.254984 0
0.0461896 0.279775 0
0.0452051 0.254984 0
0.0655118 0.281501 0
0.0642751 0.255271 0
0.0655118 0.281501 0
0.0642751 0.255271 0
0.085404 0.283704 0
0.0838412 0.255642 0
0.085404 0.283704 0
0.0838412 0.255642 0
0.105676 0.286131 0
0.103544 0.256633 0
0.105676 0.286131 0
0.103544 0.256633 0
0.125616 0.287291 0
0.124168 0.258785 0
0.125616 0.287291 0
0.124168 0.258785 0
0.142864 0.28372 0
0.144848 0.261622 0
0.142864 0.28372 0
0.144848 0.261622 0
0.154089 0.27068 0
0.164255 0.262453 0
0.154089 0.27068 0
0.164255 0.262453 0
0.15374 0.243884 0
0.17718 0.255772 0
0.15374 0.243884 0
0.17718 0.255772 0
0.138613 0.202261 0
0.177129 0.235636 0
0.138613 0.202261 0
0.177129 0.235636 0
0.106462 0.149752 0
0.157428 0.198882 0
0.106462 0.149752 0
0.157428 0.198882 0
0.0648244 0.0979711 0
0.11543 0.149196 0
0.0648244 0.0979711 0
0.11543 0.149196 0
0.0212699 0.0598385 0
0.0608269 0.0971013 0
-0.203672 0.23569 0
-0.207396 0.217052 0
-0.182166 0.241572 0
-0.180967 0.213712 0
-0.182166 0.241572 0
-0.180967 0.213712 0
-0.15851 0.241147 0
-0.156561 0.210995 0
-0.15851 0.241147 0
-0.156561 0.210995 0
-0.133728 0.238485 0
-0.135112 0.213036 0
-0.133728 0.238485 0
-0.135112 0.213036 0
-0.11183 0.239249 0
-0.114641 0.21637 0
-0.11183 0.239249 0
-0.114641 0.21637 0
-0.091313 0.241767 0
-0.0941881 0.219447 0
-0.091313 0.241767 0
-0.0941881 0.219447 0
-0.0711551 0.244689 0
-0.0738656 0.222035 0
-0.0711551 0.244689 0
-0.0738656 0.222035 0
-0.0513589 0.247483 0
-0.0537019 0.224217 0
-0.0513589 0.247483 0
-0.0537019 0.224217 0
-0.0317848 0.24988 0
-0.0338421 0.226135 0
-0.0317848 0.24988 0
-0.0338421 0.226135 0
-0.0123919 0.251887 0
-0.0140782 0.227805 0
-0.0123919 0.251887 0
-0.0140782 0.227805 0
0.00689005 0.253382 0
0.00553235 0.229261 0
0.00689005 0.253382 0
0.00553235 0.229261 0
0.0259697 0.2544 0
0.0250179 0.230464 0
0.0259697 0.2544 0
0.0250179 0.230464 0
0.0452051 0.254984 0
0.0445567 0.231383 0
0.0452051 0.254984 0
0.0445567 0.231383 0
0.0642751 0.255271 0
0.0639728 0.231948 0
0.0642751 0.255271 0
0.0639728 0.231948 0
0.0838412 0.255642 0
0.0834877 0.232126 0
0.0838412 0.255642 0
0.0834877 0.232126 0
0.103544 0.256633 0
0.102891 0.232008 0
0.103544 0.256633 0
0.102891 0.232008 0
0.124168 0.258785 0
0.122421 0.232072 0
0.124168 0.258785 0
0.122421 0.232072 0
0.144848 0.261622 0
0.142513 0.233124 0
0.144848 0.261622 0
0.142513 0.233124 0
0.164255 0.262453 0
0.163107 0.235564 0
0.164255 0.262453 0
0.163107 0.235564 0
0.17718 0.255772 0
0.18306 0.237428 0
0.17718 0.255772 0
0.18306 0.237428 0
0.177129 0.235636 0
0.195805 0.233017 0
0.177129 0.235636 0
0.195805 0.233017 0
0.157428 0.198882 0
0.193564 0.215115 0
0.157428 0.198882 0
0.193564 0.215115 0
0.11543 0.149196 0
0.165102 0.179197 0
0.11543 0.149196 0
0.165102 0.179197 0
0.0608269 0.0971013 0
0.113239 0.129134 0
-0.229969 0.212905 0
-0.232918 0.192227 0
-0.207396 0.217052 0
-0.204057 0.187696 0
-0.207396 0.217052 0
-0.204057 0.187696 0
-0.180967 0.213712 0
-0.179501 0.186039 0
-0.180967 0.213712 0
-0.179501 0.186039 0
-0.156561 0.210995 0
-0.158922 0.189453 0
-0.156561 0.210995 0
-0.158922 0.189453 0
-0.135112 0.213036 0
-0.138137 0.192697 0
-0.135112 0.213036 0
-0.138137 0.192697 0
-0.114641 0.21637 0
-0.117253 0.194908 0
-0.114641 0.21637 0
-0.117253 0.194908 0
-0.0941881 0.219447 0
-0.0964585 0.196669 0
-0.0941881 0.219447 0
-0.0964585 0.196669 0
-0.0738656 0.222035 0
-0.0759172 0.198379 0
-0.0738656 0.222035 0
-0.0759172 0.198379 0
-0.0537019 0.224217 0
-0.0556084 0.200127 0
-0.0537019 0.224217 0
-0.0556084 0.200127 0
-0.0338421 0.226135 0
-0.0355938 0.201835 0
-0.0338421 0.226135 0
-0.0355938 0.201835 0
-0.0140782 0.227805 0
-0.0156068 0.203425 0
-0.0140782 0.227805 0
-0.0156068 0.203425 0
0.00553235 0.229261 0
0.00415148 0.204834 0
0.00553235 0.229261 0
0.00415148 0.204834 0
0.0250179 0.230464 0
0.0239494 0.206042 0
0.0250179 0.230464 0
0.0239494 0.206042 0
0.0445567 0.231383 0
0.0436435 0.20705 0
0.0445567 0.231383 0
0.0436435 0.20705 0
0.0639728 0.231948 0
0.0634604 0.207863 0
0.0639728 0.231948 0
0.0634604 0.207863 0
0.0834877 0.232126 0
0.0831928 0.208436 0
0.0834877 0.232126 0
0.0831928 0.208436 0
0.102891 0.232008 0
0.103019 0.208668 0
0.102891 0.232008 0
0.103019 0.208668 0
0.122421 0.232072 0
0.12239 0.208425 0
0.122421 0.232072 0
0.12239 0.208425 0
0.142513 0.233124 0
0.141889 0.207937 0
0.142513 0.233124 0
0.141889 0.207937 0
0.163107 0.235564 0
0.161164 0.207917 0
0.163107 0.235564 0
0.161164 0.207917 0
0.18306 0.237428 0
0.181753 0.209161 0
0.18306 0.237428 0
0.181753 0.209161 0
0.195805 0.233017 0
0.200783 0.209803 0
0.195805 0.233017 0
0.200783 0.209803 0
0.193564 0.215115 0
0.212459 0.203835 0
0.193564 0.215115 0
0.212459 0.203835 0
0.165102 0.179197 0
0.203273 0.182937 0
0.165102 0.179197 0
0.203273 0.182937 0
0.113239 0.129134 0
0.164613 0.143394 0
-0.254276 0.186367 0
-0.259257 0.169048 0
-0.232918 0.192227 0
-0.228444 0.163723 0
-0.232918 0.192227 0
-0.228444 0.163723 0
-0.204057 0.187696 0
-0.202861 0.162496 0
-0.204057 0.187696 0
-0.202861 0.162496 0
-0.179501 0.186039 0
-0.182263 0.165646 0
-0.179501 0.186039 0
-0.182263 0.165646 0
-0.158922 0.189453 0
-0.161506 0.16767 0
-0.158922 0.189453 0
-0.161506 0.16767 0
-0.138137 0.192697 0
-0.140172 0.169131 0
-0.138137 0.192697 0
-0.140172 0.169131 0
-0.117253 0.194908 0
-0.119092 0.170812 0
-0.117253 0.194908 0
-0.119092 0.170812 0
-0.0964585 0.196669 0
-0.0982933 0.172724 0
-0.0964585 0.196669 0
-0.0982933 0.172724 0
-0.0759172 0.198379 0
-0.0777479 0.174674 0
-0.0759172 0.198379 0
-0.0777479 0.174674 0
-0.0556084 0.200127 0
-0.05738 0.176511 0
-0.0556084 0.200127 0
-0.05738 0.176511 0
-0.0355938 0.201835 0
-0.0372255 0.178192 0
-0.0355938 0.201835 0
-0.0372255 0.178192 0
-0.0156068 0.203425 0
-0.0170849 0.179704 0
-0.0156068 0.203425 0
-0.0170849 0.179704 0
0.00415148 0.204834 0
0.00286194 0.18104 0
0.00415148 0.204834 0
0.00286194 0.18104 0
0.0239494 0.206042 0
0.022863 0.182189 0
0.0239494 0.206042 0
0.022863 0.182189 0
0.0436435 0.20705 0
0.0427485 0.183133 0
0.0436435 0.20705 0
0.0427485 0.183133 0
0.0634604 0.207863 0
0.0627725 0.183875 0
0.0634604 0.207863 0
0.0627725 0.183875 0
0.0831928 0.208436 0
0.0827356 0.184414 0
0.0831928 0.208436 0
0.0827356 0.184414 0
0.103019 0.208668 0
0.102874 0.184749 0
0.103019 0.208668 0
0.102874 0.184749 0
0.12239 0.208425 0
0.122749 0.184741 0
0.12239 0.208425 0
0.122749 0.184741 0
0.141889 0.207937 0
0.142544 0.184173 0
0.141889 0.207937 0
0.142544 0.184173 0
0.161164 0.207917 0
0.161665 0.182989 0
0.161164 0.207917 0
0.161665 0.182989 0
0.181753 0.209161 0
0.181098 0.181806 0
0.181753 0.209161 0
0.181098 0.181806 0
0.200783 0.209803 0
0.201302 0.181226 0
0.200783 0.209803 0
0.201302 0.181226 0
0.212459 0.203835 0
0.220149 0.178905 0
0.212459 0.203835 0
0.220149 0.178905 0
0.203273 0.182937 0
0.227906 0.167714 0
0.203273 0.182937 0
0.227906 0.167714 0
0.164613 0.143394 0
0.207353 0.139886 0
-0.259257 0.169048 0
-0.255251 0.140943 0
-0.228444 0.163723 0
-0.226725 0.140139 0
-0.228444 0.163723 0
-0.226725 0.140139 0
-0.202861 0.162496 0
-0.205224 0.141816 0
-0.202861 0.162496 0
-0.205224 0.141816 0
-0.182263 0.165646 0
-0.184464 0.143162 0
-0.182263 0.165646 0
-0.184464 0.143162 0
-0.161506 0.16767 0
-0.16325 0.145031 0
-0.161506 0.16767 0
-0.16325 0.145031 0
-0.140172 0.169131 0
-0.141882 0.146947 0
-0.140172 0.169131 0
-0.141882 0.146947 0
-0.119092 0.170812 0
-0.120835 0.148645 0
-0.119092 0.170812 0
-0.120835 0.148645 0
-0.0982933 0.172724 0
-0.100045 0.150201 0
-0.0982933 0.172724 0
-0.100045 0.150201 0
-0.0777479 0.174674 0
-0.0794327 0.15169 0
-0.0777479 0.174674 0
-0.0794327 0.15169 0
-0.05738 0.176511 0
-0.0590128 0.153174 0
-0.05738 0.176511 0
-0.0590128 0.153174 0
-0.0372255 0.178192 0
-0.0387257 0.154637 0
-0.0372255 0.178192 0
-0.0387257 0.154637 0
-0.0170849 0.179704 0
-0.0184957 0.156048 0
-0.0170849 0.179704 0
-0.0184957 0.156048 0
0.00286194 0.18104 0
0.0016291 0.157362 0
0.00286194 0.18104 0
0.0016291 0.157362 0
0.022863 0.182189 0
0.0217704 0.158543 0
0.022863 0.182189 0
0.0217704 0.158543 0
0.0427485 0.183133 0
0.04189 0.159554 0
0.0427485 0.183133 0
0.04189 0.159554 0
0.0627725 0.183875 0
0.0620886 0.160355 0
0.0627725 0.183875 0
0.0620886 0.160355 0
0.0827356 0.184414 0
0.0823376 0.160902 0
0.0827356 0.184414 0
0.0823376 0.160902 0
0.102874 0.184749 0
0.102668 0.161162 0
0.102874 0.184749 0
0.102668 0.161162 0
0.122749 0.184741 0
0.123028 0.161095 0
0.122749 0.184741 0
0.123028 0.161095 0
0.142544 0.184173 0
0.143356 0.160556 0
0.142544 0.184173 0
0.143356 0.160556 0
0.161665 0.182989 0
0.163371 0.159224 0
0.161665 0.182989 0
0.163371 0.159224 0
0.181098 0.181806 0
0.182802 0.156958 0
0.181098 0.181806 0
0.182802 0.156958 0
0.201302 0.181226 0
0.202867 0.154247 0
0.201302 0.181226 0
0.202867 0.154247 0
0.220149 0.178905 0
0.223865 0.151209 0
0.220149 0.178905 0
0.223865 0.151209 0
0.227906 0.167714 0
0.242671 0.144105 0
0.227906 0.167714 0
0.242671 0.144105 0
0.207353 0.139886 0
0.239614 0.124994 0
-0.286553 0.14296 0
-0.285613 0.119879 0
-0.255251 0.140943 0
-0.252409 0.117986 0
-0.255251 0.140943 0
-0.252409 0.117986 0
-0.226725 0.140139 0
-0.227719 0.116929 0
-0.226725 0.140139 0
-0.227719 0.116929 0
-0.205224 0.141816 0
-0.207496 0.118594 0
-0.205224 0.141816 0
-0.207496 0.118594 0
-0.184464 0.143162 0
-0.186294 0.121322 0
-0.184464 0.143162 0
-0.186294 0.121322 0
-0.16325 0.145031 0
-0.164712 0.122777 0
-0.16325 0.145031 0
-0.164712 0.122777 0
-0.141882 0.146947 0
-0.143377 0.123849 0
-0.141882 0.146947 0
-0.143377 0.123849 0
-0.120835 0.148645 0
-0.122369 0.125181 0
-0.120835 0.148645 0
-0.122369 0.125181 0
-0.100045 0.150201 0
-0.101569 0.126684 0
-0.100045 0.150201 0
-0.101569 0.126684 0
-0.0794327 0.15169 0
-0.0809619 0.128245 0
-0.0794327 0.15169 0
-0.0809619 0.128245 0
-0.0590128 0.153174 0
-0.0605184 0.129784 0
-0.0590128 0.153174 0
-0.0605184 0.129784 0
-0.0387257 0.154637 0
-0.0401606 0.131255 0
-0.0387257 0.154637 0
-0.0401606 0.131255 0
-0.0184957 0.156048 0
-0.0198644 0.132641 0
-0.0184957 0.156048 0
-0.0198644 0.132641 0
0.0016291 0.157362 0
0.000389564 0.133928 0
0.0016291 0.157362 0
0.000389564 0.133928 0
0.0217704 0.158543 0
0.0206484 0.135098 0
0.0217704 0.158543 0
0.0206484 0.135098 0
0.04189 0.159554 0
0.0409685 0.136123 0
0.04189 0.159554 0
0.0409685 0.136123 0
0.0620886 0.160355 0
0.0613528 0.136969 0
0.0620886 0.160355 0
0.0613528 0.136969 0
0.0823376 0.160902 0
0.0819095 0.137585 0
0.0823376 0.160902 0
0.0819095 0.137585 0
0.102668 0.161162 0
0.102513 0.137899 0
0.102668 0.161162 0
0.102513 0.137899 0
0.123028 0.161095 0
0.123328 0.137824 0
0.123028 0.161095 0
0.123328 0.137824 0
0.143356 0.160556 0
0.144147 0.137263 0
0.143356 0.160556 0
0.144147 0.137263 0
0.163371 0.159224 0
0.165202 0.135986 0
0.163371 0.159224 0
0.165202 0.135986 0
0.182802 0.156958 0
0.185641 0.133573 0
0.182802 0.156958 0
0.185641 0.133573 0
0.202867 0.154247 0
0.206351 0.129977 0
0.202867 0.154247 0
0.206351 0.129977 0
0.223865 0.151209 0
0.227812 0.125548 0
0.223865 0.151209 0
0.227812 0.125548 0
0.242671 0.144105 0
0.25217 0.119336 0
0.242671 0.144105 0
0.25217 0.119336 0
0.239614 0.124994 0
0.263064 0.105663 0
-0.285613 0.119879 0
-0.283159 0.0956995 0
-0.252409 0.117986 0
-0.251259 0.0938213 0
-0.252409 0.117986 0
-0.251259 0.0938213 0