# vtk DataFile Version 3.0
#This file was generated by the deal.II library on 2026/3/25 at 11:20:56
ASCII
DATASET UNSTRUCTURED_GRID

POINTS 8020 double
0 0 0
0.03125 0 0
0 0.03125 0
0.03125 0.03125 0
0 0.03125 0
0.03125 0.03125 0
0 0.0625 0
0.03125 0.0625 0
0 0.0625 0
0.03125 0.0625 0
0 0.09375 0
0.03125 0.09375 0
0 0.09375 0
0.03125 0.09375 0
0 0.125 0
0.03125 0.125 0
0 0.125 0
0.03125 0.125 0
0 0.15625 0
0.03125 0.15625 0
0 0.15625 0
0.03125 0.15625 0
0 0.1875 0
0.03125 0.1875 0
0 0.1875 0
0.03125 0.1875 0
0 0.21875 0
0.03125 0.21875 0
0 0.21875 0
0.03125 0.21875 0
0 0.25 0
0.03125 0.25 0
0 0.25 0
0.03125 0.25 0
0 0.28125 0
0.03125 0.28125 0
0 0.28125 0
0.03125 0.28125 0
0 0.3125 0
0.03125 0.3125 0
0.03125 0 0
0.0625 0 0
0.03125 0.03125 0
0.0625 0.03125 0
0.03125 0.03125 0
0.0625 0.03125 0
0.03125 0.0625 0
0.0625 0.0625 0
0.03125 0.0625 0
0.0625 0.0625 0
0.03125 0.09375 0
0.0625 0.09375 0
0.03125 0.09375 0
0.0625 0.09375 0
0.03125 0.125 0
0.0625 0.125 0
0.03125 0.125 0
0.0625 0.125 0
0.03125 0.15625 0
0.0625 0.15625 0
0.03125 0.15625 0
0.0625 0.15625 0
0.03125 0.1875 0
0.0625 0.1875 0
0.03125 0.1875 0
0.0625 0.1875 0
0.03125 0.21875 0
0.0625 0.21875 0
0.03125 0.21875 0
0.0625 0.21875 0
0.03125 0.25 0
0.0625 0.25 0
0.03125 0.25 0
0.0625 0.25 0
0.03125 0.28125 0
0.0625 0.28125 0
0.03125 0.28125 0
0.0625 0.28125 0
0.03125 0.3125 0
0.0625 0.3125 0
0.0625 0 0
0.09375 0 0
0.0625 0.03125 0
0.09375 0.03125 0
0.0625 0.03125 0
0.09375 0.03125 0
0.0625 0.0625 0
0.09375 0.0625 0
0.0625 0.0625 0
0.09375 0.0625 0
0.0625 0.09375 0
0.09375 0.09375 0
0.0625 0.09375 0
0.09375 0.09375 0
0.0625 0.125 0
0.09375 0.125 0
0.0625 0.125 0
0.09375 0.125 0
0.0625 0.15625 0
0.09375 0.15625 0
0.0625 0.15625 0
0.09375 0.15625 0
0.0625 0.1875 0
0.09375 0.1875 0
0.0625 0.1875 0
0.09375 0.1875 0
0.0625 0.21875 0
0.09375 0.21875 0
0.0625 0.21875 0
0.09375 0.21875 0
0.0625 0.25 0
0.09375 0.25 0
0.0625 0.25 0
0.09375 0.25 0
0.0625 0.28125 0
0.09375 0.28125 0
0.0625 0.28125 0
0.09375 0.28125 0
0.0625 0.3125 0
0.09375 0.3125 0
0.0625 0.625 0
0.09375 0.625 0
0.0625 0.65625 0
0.09375 0.65625 0
0.0625 0.65625 0
0.09375 0.65625 0
0.0625 0.6875 0
0.09375 0.6875 0
0.0625 0.6875 0
0.09375 0.6875 0
0.0625 0.71875 0
0.09375 0.71875 0
0.0625 0.71875 0
0.09375 0.71875 0
0.0625 0.75 0
0.09375 0.75 0
0.0625 0.75 0
0.09375 0.75 0
0.0625 0.78125 0
0.09375 0.78125 0
0.0625 0.78125 0
0.09375 0.78125 0
0.0625 0.8125 0
0.09375 0.8125 0
0.0625 0.8125 0
0.09375 0.8125 0
0.0625 0.84375 0
0.09375 0.84375 0
0.0625 0.84375 0
0.09375 0.84375 0
0.0625 0.875 0
0.09375 0.875 0
0.09375 0 0
0.125 0 0
0.09375 0.03125 0
0.125 0.03125 0
0.09375 0.03125 0
0.125 0.03125 0
0.09375 0.0625 0
0.125 0.0625 0
0.09375 0.0625 0
0.125 0.0625 0
0.09375 0.09375 0
0.125 0.09375 0
0.09375 0.09375 0
0.125 0.09375 0
0.09375 0.125 0
0.125 0.125 0
0.09375 0.125 0
0.125 0.125 0
0.09375 0.15625 0
0.125 0.15625 0
0.09375 0.15625 0
0.125 0.15625 0
0.09375 0.1875 0
0.125 0.1875 0
0.09375 0.1875 0
0.125 0.1875 0
0.09375 0.21875 0
0.125 0.21875 0
0.09375 0.21875 0
0.125 0.21875 0
0.09375 0.25 0
0.125 0.25 0
0.09375 0.25 0
0.125 0.25 0
0.09375 0.28125 0
0.125 0.28125 0
0.09375 0.28125 0
0.125 0.28125 0
0.09375 0.3125 0
0.125 0.3125 0
0.09375 0.46875 0
0.125 0.46875 0
0.09375 0.5 0
0.125 0.5 0
0.09375 0.5 0
0.125 0.5 0
0.09375 0.53125 0
0.125 0.53125 0
0.09375 0.53125 0
0.125 0.53125 0
0.09375 0.5625 0
0.125 0.5625 0
0.09375 0.5625 0
0.125 0.5625 0
0.09375 0.59375 0
0.125 0.59375 0
0.09375 0.59375 0
0.125 0.59375 0
0.09375 0.625 0
0.125 0.625 0
0.09375 0.625 0
0.125 0.625 0
0.09375 0.65625 0
0.125 0.65625 0
0.09375 0.65625 0
0.125 0.65625 0
0.09375 0.6875 0
0.125 0.6875 0
0.09375 0.6875 0
0.125 0.6875 0
0.09375 0.71875 0
0.125 0.71875 0
0.09375 0.71875 0
0.125 0.71875 0
0.09375 0.75 0
0.125 0.75 0
0.09375 0.75 0
0.125 0.75 0
0.09375 0.78125 0
0.125 0.78125 0
0.09375 0.78125 0
0.125 0.78125 0
0.09375 0.8125 0
0.125 0.8125 0
0.09375 0.8125 0
0.125 0.8125 0
0.09375 0.84375 0
0.125 0.84375 0
0.09375 0.84375 0
0.125 0.84375 0
0.09375 0.875 0
0.125 0.875 0
0.125 0 0
0.15625 0 0
0.125 0.03125 0
0.15625 0.03125 0
0.125 0.03125 0
0.15625 0.03125 0
0.125 0.0625 0
0.15625 0.0625 0
0.125 0.0625 0
0.15625 0.0625 0
0.125 0.09375 0
0.15625 0.09375 0
0.125 0.09375 0
0.15625 0.09375 0
0.125 0.125 0
0.15625 0.125 0
0.125 0.125 0
0.15625 0.125 0
0.125 0.15625 0
0.15625 0.15625 0
0.125 0.15625 0
0.15625 0.15625 0
0.125 0.1875 0
0.15625 0.1875 0
0.125 0.1875 0
0.15625 0.1875 0
0.125 0.21875 0
0.15625 0.21875 0
0.125 0.28125 0
0.15625 0.28125 0
0.125 0.3125 0
0.15625 0.3125 0
0.125 0.3125 0
0.15625 0.3125 0
0.125 0.34375 0
0.15625 0.34375 0
0.125 0.34375 0
0.15625 0.34375 0
0.125 0.375 0
0.15625 0.375 0
0.125 0.375 0
0.15625 0.375 0
0.125 0.40625 0
0.15625 0.40625 0
0.125 0.40625 0
0.15625 0.40625 0
0.125 0.4375 0
0.15625 0.4375 0
0.125 0.4375 0
0.15625 0.4375 0
0.125 0.46875 0
0.15625 0.46875 0
0.125 0.46875 0
0.15625 0.46875 0
0.125 0.5 0
0.15625 0.5 0
0.125 0.5 0
0.15625 0.5 0
0.125 0.53125 0
0.15625 0.53125 0
0.125 0.53125 0
0.15625 0.53125 0
0.125 0.5625 0
0.15625 0.5625 0
0.125 0.5625 0
0.15625 0.5625 0
0.125 0.59375 0
0.15625 0.59375 0
0.125 0.59375 0
0.15625 0.59375 0
0.125 0.625 0
0.15625 0.625 0
0.125 0.625 0
0.15625 0.625 0
0.125 0.65625 0
0.15625 0.65625 0
0.125 0.65625 0
0.15625 0.65625 0
0.125 0.6875 0
0.15625 0.6875 0
0.125 0.6875 0
0.15625 0.6875 0
0.125 0.71875 0
0.15625 0.71875 0
0.125 0.71875 0
0.15625 0.71875 0
0.125 0.75 0
0.15625 0.75 0
0.125 0.75 0
0.15625 0.75 0
0.125 0.78125 0
0.15625 0.78125 0
0.125 0.78125 0
0.15625 0.78125 0
0.125 0.8125 0
0.15625 0.8125 0
0.125 0.8125 0
0.15625 0.8125 0
0.125 0.84375 0
0.15625 0.84375 0
0.125 0.84375 0
0.15625 0.84375 0
0.125 0.875 0
0.15625 0.875 0
0.125 0.875 0
0.15625 0.875 0
0.125 0.90625 0
0.15625 0.90625 0
0.15625 0 0
0.1875 0 0
0.15625 0.03125 0
0.1875 0.03125 0
0.15625 0.03125 0
0.1875 0.03125 0
0.15625 0.0625 0
0.1875 0.0625 0
0.15625 0.0625 0
0.1875 0.0625 0
0.15625 0.09375 0
0.1875 0.09375 0
0.15625 0.09375 0
0.1875 0.09375 0
0.15625 0.125 0
0.1875 0.125 0
0.15625 0.125 0
0.1875 0.125 0
0.15625 0.15625 0
0.1875 0.15625 0
0.15625 0.25 0
0.1875 0.25 0
0.15625 0.28125 0
0.1875 0.28125 0
0.15625 0.28125 0
0.1875 0.28125 0
0.15625 0.3125 0
0.1875 0.3125 0
0.15625 0.3125 0
0.1875 0.3125 0
0.15625 0.34375 0
0.1875 0.34375 0
0.15625 0.34375 0
0.1875 0.34375 0
0.15625 0.375 0
0.1875 0.375 0
0.15625 0.375 0
0.1875 0.375 0
0.15625 0.40625 0
0.1875 0.40625 0
0.15625 0.40625 0
0.1875 0.40625 0
0.15625 0.4375 0
0.1875 0.4375 0
0.15625 0.4375 0
0.1875 0.4375 0
0.15625 0.46875 0
0.1875 0.46875 0
0.15625 0.46875 0
0.1875 0.46875 0
0.15625 0.5 0
0.1875 0.5 0
0.15625 0.5 0
0.1875 0.5 0
0.15625 0.53125 0
0.1875 0.53125 0
0.15625 0.53125 0
0.1875 0.53125 0
0.15625 0.5625 0
0.1875 0.5625 0
0.15625 0.5625 0
0.1875 0.5625 0
0.15625 0.59375 0
0.1875 0.59375 0
0.15625 0.59375 0
0.1875 0.59375 0
0.15625 0.625 0
0.1875 0.625 0
0.15625 0.625 0
0.1875 0.625 0
0.15625 0.65625 0
0.1875 0.65625 0
0.15625 0.65625 0
0.1875 0.65625 0
0.15625 0.6875 0
0.1875 0.6875 0
0.15625 0.6875 0
0.1875 0.6875 0
0.15625 0.71875 0
0.1875 0.71875 0
0.15625 0.71875 0
0.1875 0.71875 0
0.15625 0.75 0
0.1875 0.75 0
0.15625 0.75 0
0.1875 0.75 0
0.15625 0.78125 0
0.1875 0.78125 0
0.15625 0.78125 0
0.1875 0.78125 0
0.15625 0.8125 0
0.1875 0.8125 0
0.15625 0.8125 0
0.1875 0.8125 0
0.15625 0.84375 0
0.1875 0.84375 0
0.15625 0.84375 0
0.1875 0.84375 0
0.15625 0.875 0
0.1875 0.875 0
0.15625 0.875 0
0.1875 0.875 0
0.15625 0.90625 0
0.1875 0.90625 0
0.1875 0.1875 0
0.21875 0.1875 0
0.1875 0.21875 0
0.21875 0.21875 0
0.1875 0.21875 0
0.21875 0.21875 0
0.1875 0.25 0
0.21875 0.25 0
0.1875 0.25 0
0.21875 0.25 0
0.1875 0.28125 0
0.21875 0.28125 0
0.1875 0.28125 0
0.21875 0.28125 0
0.1875 0.3125 0
0.21875 0.3125 0
0.1875 0.3125 0
0.21875 0.3125 0
0.1875 0.34375 0
0.21875 0.34375 0
0.1875 0.34375 0
0.21875 0.34375 0
0.1875 0.375 0
0.21875 0.375 0
0.1875 0.375 0
0.21875 0.375 0
0.1875 0.40625 0
0.21875 0.40625 0
0.1875 0.40625 0
0.21875 0.40625 0
0.1875 0.4375 0
0.21875 0.4375 0
0.1875 0.4375 0
0.21875 0.4375 0
0.1875 0.46875 0
0.21875 0.46875 0
0.1875 0.46875 0
0.21875 0.46875 0
0.1875 0.5 0
0.21875 0.5 0
0.1875 0.5 0
0.21875 0.5 0
0.1875 0.53125 0
0.21875 0.53125 0
0.1875 0.53125 0
0.21875 0.53125 0
0.1875 0.5625 0
0.21875 0.5625 0
0.1875 0.5625 0
0.21875 0.5625 0
0.1875 0.59375 0
0.21875 0.59375 0
0.1875 0.59375 0
0.21875 0.59375 0
0.1875 0.625 0
0.21875 0.625 0
0.1875 0.625 0
0.21875 0.625 0
0.1875 0.65625 0
0.21875 0.65625 0
0.1875 0.65625 0
0.21875 0.65625 0
0.1875 0.6875 0
0.21875 0.6875 0
0.1875 0.6875 0
0.21875 0.6875 0
0.1875 0.71875 0
0.21875 0.71875 0
0.1875 0.71875 0
0.21875 0.71875 0
0.1875 0.75 0
0.21875 0.75 0
0.1875 0.75 0
0.21875 0.75 0
0.1875 0.78125 0
0.21875 0.78125 0
0.1875 0.78125 0
0.21875 0.78125 0
0.1875 0.8125 0
0.21875 0.8125 0
0.1875 0.8125 0
0.21875 0.8125 0
0.1875 0.84375 0
0.21875 0.84375 0
0.1875 0.84375 0
0.21875 0.84375 0
0.1875 0.875 0
0.21875 0.875 0
0.1875 0.875 0
0.21875 0.875 0
0.1875 0.90625 0
0.21875 0.90625 0
0.21875 0.15625 0
0.25 0.15625 0
0.21875 0.1875 0
0.25 0.1875 0
0.21875 0.1875 0
0.25 0.1875 0
0.21875 0.21875 0
0.25 0.21875 0
0.21875 0.21875 0
0.25 0.21875 0
0.21875 0.25 0
0.25 0.25 0
0.21875 0.25 0
0.25 0.25 0
0.21875 0.28125 0
0.25 0.28125 0
0.21875 0.28125 0
0.25 0.28125 0
0.21875 0.3125 0
0.25 0.3125 0
0.21875 0.3125 0
0.25 0.3125 0
0.21875 0.34375 0
0.25 0.34375 0
0.21875 0.34375 0
0.25 0.34375 0
0.21875 0.375 0
0.25 0.375 0
0.21875 0.375 0
0.25 0.375 0
0.21875 0.40625 0
0.25 0.40625 0
0.21875 0.40625 0
0.25 0.40625 0
0.21875 0.4375 0
0.25 0.4375 0
0.21875 0.4375 0
0.25 0.4375 0
0.21875 0.46875 0
0.25 0.46875 0
0.21875 0.46875 0
0.25 0.46875 0
0.21875 0.5 0
0.25 0.5 0
0.21875 0.5 0
0.25 0.5 0
0.21875 0.53125 0
0.25 0.53125 0
0.21875 0.53125 0
0.25 0.53125 0
0.21875 0.5625 0
0.25 0.5625 0
0.21875 0.5625 0
0.25 0.5625 0
0.21875 0.59375 0
0.25 0.59375 0
0.21875 0.59375 0
0.25 0.59375 0
0.21875 0.625 0
0.25 0.625 0
0.21875 0.625 0
0.25 0.625 0
0.21875 0.65625 0
[...]
POINT_DATA 8020
VECTORS velocity double
0 0 0
-0.00206512 -0.00349075 0
0 0 0
-0.00230158 0.000404114 0
0 0 0
-0.00230158 0.000404114 0
0 0 0
-0.00235092 0.0042228 0
0 0 0
-0.00235092 0.0042228 0
0 0 0
-0.00304233 0.00881326 0
0 0 0
-0.00304233 0.00881326 0
0 0 0
-0.00274696 0.0136064 0
0 0 0
-0.00274696 0.0136064 0
0 0 0
-0.00456793 0.0200738 0
0 0 0
-0.00456793 0.0200738 0
0 0 0
-0.0048943 0.0285771 0
0 0 0
-0.0048943 0.0285771 0
0 0 0
-0.00679558 0.0395366 0
0 0 0
-0.00679558 0.0395366 0
0 0 0
-0.00924721 0.0547955 0
0 0 0
-0.00924721 0.0547955 0
0 0 0
-0.012113 0.075564 0
0 0 0
-0.012113 0.075564 0
0 0 0
-0.0146885 0.10196 0
-0.00206512 -0.00349075 0
-0.00623399 -0.000953614 0
-0.00230158 0.000404114 0
-0.00649239 0.00376472 0
-0.00230158 0.000404114 0
-0.00649239 0.00376472 0
-0.00235092 0.0042228 0
-0.00661636 0.0087433 0
-0.00235092 0.0042228 0
-0.00661636 0.0087433 0
-0.00304233 0.00881326 0
-0.00858319 0.0143724 0
-0.00304233 0.00881326 0
-0.00858319 0.0143724 0
-0.00274696 0.0136064 0
-0.00798403 0.0204887 0
-0.00274696 0.0136064 0
-0.00798403 0.0204887 0
-0.00456793 0.0200738 0
-0.013724 0.0288554 0
-0.00456793 0.0200738 0
-0.013724 0.0288554 0
-0.0048943 0.0285771 0
-0.0147105 0.0395351 0
-0.0048943 0.0285771 0
-0.0147105 0.0395351 0
-0.00679558 0.0395366 0
-0.0255544 0.057735 0
-0.00679558 0.0395366 0
-0.0255544 0.057735 0
-0.00924721 0.0547955 0
-0.0351526 0.0874944 0
-0.00924721 0.0547955 0
-0.0351526 0.0874944 0
-0.012113 0.075564 0
-0.0451274 0.126044 0
-0.012113 0.075564 0
-0.0451274 0.126044 0
-0.0146885 0.10196 0
-0.0493649 0.167625 0
-0.00623399 -0.000953614 0
-0.010847 0.00298904 0
-0.00649239 0.00376472 0
-0.0114684 0.00795501 0
-0.00649239 0.00376472 0
-0.0114684 0.00795501 0
-0.00661636 0.0087433 0
-0.0120828 0.0134383 0
-0.00661636 0.0087433 0
-0.0120828 0.0134383 0
-0.00858319 0.0143724 0
-0.0141305 0.0189326 0
-0.00858319 0.0143724 0
-0.0141305 0.0189326 0
-0.00798403 0.0204887 0
-0.016719 0.0268991 0
-0.00798403 0.0204887 0
-0.016719 0.0268991 0
-0.013724 0.0288554 0
-0.02503 0.0386848 0
-0.013724 0.0288554 0
-0.02503 0.0386848 0
-0.0147105 0.0395351 0
-0.0394163 0.0637988 0
-0.0147105 0.0395351 0
-0.0394163 0.0637988 0
-0.0255544 0.057735 0
-0.0648144 0.109685 0
-0.0255544 0.057735 0
-0.0648144 0.109685 0
-0.0351526 0.0874944 0
-0.082459 0.166187 0
-0.0351526 0.0874944 0
-0.082459 0.166187 0
-0.0451274 0.126044 0
-0.0930516 0.222666 0
-0.0451274 0.126044 0
-0.0930516 0.222666 0
-0.0493649 0.167625 0
-0.0890083 0.268419 0
0.051053 0.227954 0
0.0752399 0.305261 0
0.054122 0.195794 0
0.0858448 0.281622 0
0.054122 0.195794 0
0.0858448 0.281622 0
0.0512392 0.156472 0
0.0909855 0.249548 0
0.0512392 0.156472 0
0.0909855 0.249548 0
0.0423683 0.111387 0
0.088746 0.208584 0
0.0423683 0.111387 0
0.088746 0.208584 0
0.0292675 0.0661189 0
0.0773578 0.159476 0
0.0292675 0.0661189 0
0.0773578 0.159476 0
0.0173451 0.0302092 0
0.0582258 0.10646 0
0.0173451 0.0302092 0
0.0582258 0.10646 0
0.00705649 0.00882023 0
0.0361428 0.0579109 0
0.00705649 0.00882023 0
0.0361428 0.0579109 0
0.00397536 -0.000506422 0
0.0178977 0.024212 0
0.00397536 -0.000506422 0
0.0178977 0.024212 0
0.0106846 0.00031408 0
0.0101147 0.00999197 0
-0.010847 0.00298904 0
-0.0160185 0.00749329 0
-0.0114684 0.00795501 0
-0.0165605 0.0125192 0
-0.0114684 0.00795501 0
-0.0165605 0.0125192 0
-0.0120828 0.0134383 0
-0.0184142 0.0180607 0
-0.0120828 0.0134383 0
-0.0184142 0.0180607 0
-0.0141305 0.0189326 0
-0.0206542 0.0251005 0
-0.0141305 0.0189326 0
-0.0206542 0.0251005 0
-0.016719 0.0268991 0
-0.0308859 0.037165 0
-0.016719 0.0268991 0
-0.0308859 0.037165 0
-0.02503 0.0386848 0
-0.0537987 0.0679562 0
-0.02503 0.0386848 0
-0.0537987 0.0679562 0
-0.0394163 0.0637988 0
-0.0954702 0.126834 0
-0.0394163 0.0637988 0
-0.0954702 0.126834 0
-0.0648144 0.109685 0
-0.123972 0.195735 0
-0.0648144 0.109685 0
-0.123972 0.195735 0
-0.082459 0.166187 0
-0.139116 0.254232 0
-0.082459 0.166187 0
-0.139116 0.254232 0
-0.0930516 0.222666 0
-0.129215 0.290299 0
-0.0930516 0.222666 0
-0.129215 0.290299 0
-0.0890083 0.268419 0
-0.111698 0.303193 0
-0.0071617 0.335088 0
-0.00924903 0.313608 0
0.0105508 0.3359 0
0.0100995 0.315425 0
0.0105508 0.3359 0
0.0100995 0.315425 0
0.0284793 0.334301 0
0.028961 0.317041 0
0.0284793 0.334301 0
0.028961 0.317041 0
0.0451872 0.329471 0
0.0484602 0.318296 0
0.0451872 0.329471 0
0.0484602 0.318296 0
0.0617251 0.320335 0
0.0674658 0.318584 0
0.0617251 0.320335 0
0.0674658 0.318584 0
0.0752399 0.305261 0
0.0866749 0.316871 0
0.0752399 0.305261 0
0.0866749 0.316871 0
0.0858448 0.281622 0
0.104143 0.311213 0
0.0858448 0.281622 0
0.104143 0.311213 0
0.0909855 0.249548 0
0.11826 0.298261 0
0.0909855 0.249548 0
0.11826 0.298261 0
0.088746 0.208584 0
0.126119 0.2751 0
0.088746 0.208584 0
0.126119 0.2751 0
0.0773578 0.159476 0
0.124872 0.239788 0
0.0773578 0.159476 0
0.124872 0.239788 0
0.0582258 0.10646 0
0.111334 0.192513 0
0.0582258 0.10646 0
0.111334 0.192513 0
0.0361428 0.0579109 0
0.0869441 0.137361 0
0.0361428 0.0579109 0
0.0869441 0.137361 0
0.0178977 0.024212 0
0.0548626 0.0833694 0
0.0178977 0.024212 0
0.0548626 0.0833694 0
0.0101147 0.00999197 0
0.0271752 0.0435533 0
-0.0160185 0.00749329 0
-0.0214996 0.0118247 0
-0.0165605 0.0125192 0
-0.0215624 0.0170267 0
-0.0165605 0.0125192 0
-0.0215624 0.0170267 0
-0.0184142 0.0180607 0
-0.0258562 0.0235772 0
-0.0184142 0.0180607 0
-0.0258562 0.0235772 0
-0.0206542 0.0251005 0
-0.0310032 0.0340523 0
-0.0206542 0.0251005 0
-0.0310032 0.0340523 0
-0.0308859 0.037165 0
-0.0641022 0.0649572 0
-0.0308859 0.037165 0
-0.0641022 0.0649572 0
-0.0537987 0.0679562 0
-0.118155 0.131289 0
-0.0537987 0.0679562 0
-0.118155 0.131289 0
-0.0954702 0.126834 0
-0.166476 0.207266 0
-0.0954702 0.126834 0
-0.166476 0.207266 0
-0.123972 0.195735 0
-0.176453 0.261743 0
-0.129215 0.290299 0
-0.138092 0.274891 0
-0.111698 0.303193 0
-0.114628 0.273924 0
-0.111698 0.303193 0
-0.114628 0.273924 0
-0.0908155 0.307069 0
-0.0920678 0.274081 0
-0.0908155 0.307069 0
-0.0920678 0.274081 0
-0.0691817 0.308408 0
-0.0710537 0.275649 0
-0.0691817 0.308408 0
-0.0710537 0.275649 0
-0.0486405 0.309722 0
-0.0504835 0.277842 0
-0.0486405 0.309722 0
-0.0504835 0.277842 0
-0.0284174 0.311402 0
-0.030849 0.280151 0
-0.0284174 0.311402 0
-0.030849 0.280151 0
-0.00924903 0.313608 0
-0.0112155 0.282118 0
-0.00924903 0.313608 0
-0.0112155 0.282118 0
0.0100995 0.315425 0
0.00819119 0.283863 0
0.0100995 0.315425 0
0.00819119 0.283863 0
0.028961 0.317041 0
0.0274585 0.285324 0
0.028961 0.317041 0
0.0274585 0.285324 0
0.0484602 0.318296 0
0.0470385 0.286657 0
0.0484602 0.318296 0
0.0470385 0.286657 0
0.0674658 0.318584 0
0.066739 0.288158 0
0.0674658 0.318584 0
0.066739 0.288158 0
0.0866749 0.316871 0
0.0870489 0.289944 0
0.0866749 0.316871 0
0.0870489 0.289944 0
0.104143 0.311213 0
0.107463 0.291688 0
0.104143 0.311213 0
0.107463 0.291688 0
0.11826 0.298261 0
0.127496 0.292018 0
0.11826 0.298261 0
0.127496 0.292018 0
0.126119 0.2751 0
0.144567 0.287608 0
0.126119 0.2751 0
0.144567 0.287608 0
0.124872 0.239788 0
0.155646 0.273959 0
0.124872 0.239788 0
0.155646 0.273959 0
0.111334 0.192513 0
0.155233 0.24689 0
0.111334 0.192513 0
0.155233 0.24689 0
0.0869441 0.137361 0
0.140163 0.205185 0
0.0869441 0.137361 0
0.140163 0.205185 0
0.0548626 0.0833694 0
0.108614 0.152383 0
0.0548626 0.0833694 0
0.108614 0.152383 0
0.0271752 0.0435533 0
0.0664859 0.0991131 0
0.0271752 0.0435533 0
0.0664859 0.0991131 0
0.00191196 0.0260137 0
0.0217998 0.0574547 0
-0.0214996 0.0118247 0
-0.0271503 0.0155684 0
-0.0215624 0.0170267 0
-0.0272203 0.0216218 0
-0.0215624 0.0170267 0
-0.0272203 0.0216218 0
-0.0258562 0.0235772 0
-0.0341993 0.0289695 0
-0.0258562 0.0235772 0
-0.0341993 0.0289695 0
-0.0310032 0.0340523 0
-0.0579484 0.0537222 0
-0.0310032 0.0340523 0
-0.0579484 0.0537222 0
-0.0641022 0.0649572 0
-0.134161 0.119431 0
-0.0641022 0.0649572 0
-0.134161 0.119431 0
-0.118155 0.131289 0
-0.194958 0.200007 0
-0.159483 0.270157 0
-0.162644 0.246606 0
-0.138092 0.274891 0
-0.137647 0.244573 0
-0.138092 0.274891 0
-0.137647 0.244573 0
-0.114628 0.273924 0
-0.11528 0.245463 0
-0.114628 0.273924 0
-0.11528 0.245463 0
-0.0920678 0.274081 0
-0.0941756 0.247889 0
-0.0920678 0.274081 0
-0.0941756 0.247889 0
-0.0710537 0.275649 0
-0.073482 0.250708 0
-0.0710537 0.275649 0
-0.073482 0.250708 0
-0.0504835 0.277842 0
-0.0531207 0.253444 0
-0.0504835 0.277842 0
-0.0531207 0.253444 0
-0.030849 0.280151 0
-0.0330522 0.255838 0
-0.030849 0.280151 0
-0.0330522 0.255838 0
-0.0112155 0.282118 0
-0.0131134 0.25787 0
-0.0112155 0.282118 0
-0.0131134 0.25787 0
0.00819119 0.283863 0
0.00666717 0.259417 0
0.00819119 0.283863 0
0.00666717 0.259417 0
0.0274585 0.285324 0
0.0262895 0.260508 0
0.0274585 0.285324 0
0.0262895 0.260508 0
0.0470385 0.286657 0
0.0460319 0.261188 0
0.0470385 0.286657 0
0.0460319 0.261188 0
0.066739 0.288158 0
0.0656567 0.261573 0
0.066739 0.288158 0
0.0656567 0.261573 0
0.0870489 0.289944 0
0.0857106 0.261989 0
0.0870489 0.289944 0
0.0857106 0.261989 0
0.107463 0.291688 0
0.105918 0.262868 0
0.107463 0.291688 0
0.105918 0.262868 0
0.127496 0.292018 0
0.126739 0.264573 0
0.127496 0.292018 0
0.126739 0.264573 0
0.144567 0.287608 0
0.147528 0.266595 0
0.144567 0.287608 0
0.147528 0.266595 0
0.155646 0.273959 0
0.166525 0.266326 0
0.155646 0.273959 0
0.166525 0.266326 0
0.155233 0.24689 0
0.179229 0.258648 0
0.155233 0.24689 0
0.179229 0.258648 0
0.140163 0.205185 0
0.178841 0.237854 0
0.140163 0.205185 0
0.178841 0.237854 0
0.108614 0.152383 0
0.15981 0.201018 0
0.108614 0.152383 0
0.15981 0.201018 0
0.0664859 0.0991131 0
0.118229 0.151399 0
0.0664859 0.0991131 0
0.118229 0.151399 0
0.0217998 0.0574547 0
0.0639122 0.0991676 0
-0.206457 0.238178 0
-0.211953 0.22129 0
-0.186017 0.245821 0
-0.185885 0.219041 0
-0.186017 0.245821 0
-0.185885 0.219041 0
-0.162644 0.246606 0
-0.161119 0.216615 0
-0.162644 0.246606 0
-0.161119 0.216615 0
-0.137647 0.244573 0
-0.139068 0.218497 0
-0.137647 0.244573 0
-0.139068 0.218497 0
-0.11528 0.245463 0
-0.118 0.221658 0
-0.11528 0.245463 0
-0.118 0.221658 0
-0.0941756 0.247889 0
-0.0970027 0.224691 0
-0.0941756 0.247889 0
-0.0970027 0.224691 0
-0.073482 0.250708 0
-0.0761833 0.227324 0
-0.073482 0.250708 0
-0.0761833 0.227324 0
-0.0531207 0.253444 0
-0.0554936 0.229585 0
-0.0531207 0.253444 0
-0.0554936 0.229585 0
-0.0330522 0.255838 0
-0.0351497 0.231577 0
-0.0330522 0.255838 0
-0.0351497 0.231577 0
-0.0131134 0.25787 0
-0.0148332 0.2333 0
-0.0131134 0.25787 0
-0.0148332 0.2333 0
0.00666717 0.259417 0
0.00526499 0.234781 0
0.00666717 0.259417 0
0.00526499 0.234781 0
0.0262895 0.260508 0
0.0253094 0.235986 0
0.0262895 0.260508 0
0.0253094 0.235986 0
0.0460319 0.261188 0
0.0453249 0.236891 0
0.0460319 0.261188 0
0.0453249 0.236891 0
0.0656567 0.261573 0
0.0653111 0.237458 0
0.0656567 0.261573 0
0.0653111 0.237458 0
0.0857106 0.261989 0
0.085316 0.23767 0
0.0857106 0.261989 0
0.085316 0.23767 0
0.105918 0.262868 0
0.105339 0.237632 0
0.105918 0.262868 0
0.105339 0.237632 0
0.126739 0.264573 0
0.125337 0.237723 0
0.126739 0.264573 0
0.125337 0.237723 0
0.147528 0.266595 0
0.14589 0.238556 0
0.147528 0.266595 0
0.14589 0.238556 0
0.166525 0.266326 0
0.166473 0.240307 0
0.166525 0.266326 0
0.166473 0.240307 0
0.179229 0.258648 0
0.186139 0.241043 0
0.179229 0.258648 0
0.186139 0.241043 0
0.178841 0.237854 0
0.198328 0.235445 0
0.178841 0.237854 0
0.198328 0.235445 0
0.15981 0.201018 0
0.195952 0.2168 0
0.15981 0.201018 0
0.195952 0.2168 0
0.118229 0.151399 0
0.167774 0.180888 0
0.118229 0.151399 0
0.167774 0.180888 0
0.0639122 0.0991676 0
0.116231 0.131204 0
-0.233037 0.215269 0
-0.237883 0.196041 0
-0.211953 0.22129 0
-0.209605 0.192539 0
-0.211953 0.22129 0
-0.209605 0.192539 0
-0.185885 0.219041 0
-0.184627 0.190998 0
-0.185885 0.219041 0
-0.184627 0.190998 0
-0.161119 0.216615 0
-0.163342 0.194188 0
-0.161119 0.216615 0
-0.163342 0.194188 0
-0.139068 0.218497 0
-0.14199 0.197346 0
-0.139068 0.218497 0
-0.14199 0.197346 0
-0.118 0.221658 0
-0.120608 0.199621 0
-0.118 0.221658 0
-0.120608 0.199621 0
-0.0970027 0.224691 0
-0.099347 0.201496 0
-0.0970027 0.224691 0
-0.099347 0.201496 0
-0.0761833 0.227324 0
-0.0783062 0.203306 0
-0.0761833 0.227324 0
-0.0783062 0.203306 0
-0.0554936 0.229585 0
-0.0574849 0.20513 0
-0.0554936 0.229585 0
-0.0574849 0.20513 0
-0.0351497 0.231577 0
-0.036944 0.206894 0
-0.0351497 0.231577 0
-0.036944 0.206894 0
-0.0148332 0.2333 0
-0.0164097 0.208523 0
-0.0148332 0.2333 0
-0.0164097 0.208523 0
0.00526499 0.234781 0
0.00388815 0.209952 0
0.00526499 0.234781 0
0.00388815 0.209952 0
0.0253094 0.235986 0
0.0242368 0.211159 0
0.0253094 0.235986 0
0.0242368 0.211159 0
0.0453249 0.236891 0
0.0444602 0.212138 0
0.0453249 0.236891 0
0.0444602 0.212138 0
0.0653111 0.237458 0
0.0648072 0.212892 0
0.0653111 0.237458 0
0.0648072 0.212892 0
0.085316 0.23767 0
0.085057 0.213389 0
0.085316 0.23767 0
0.085057 0.213389 0
0.105339 0.237632 0
0.105405 0.213562 0
0.105339 0.237632 0
0.105405 0.213562 0
0.125337 0.237723 0
0.125338 0.213323 0
0.125337 0.237723 0
0.125338 0.213323 0
0.14589 0.238556 0
0.145414 0.212871 0
0.14589 0.238556 0
0.145414 0.212871 0
0.166473 0.240307 0
0.165203 0.212728 0
0.166473 0.240307 0
0.165203 0.212728 0
0.186139 0.241043 0
0.185866 0.213396 0
0.186139 0.241043 0
0.185866 0.213396 0
0.198328 0.235445 0
0.204534 0.212978 0
0.198328 0.235445 0
0.204534 0.212978 0
0.195952 0.2168 0
0.21553 0.205839 0
0.195952 0.2168 0
0.21553 0.205839 0
0.167774 0.180888 0
0.20591 0.184246 0
0.167774 0.180888 0
0.20591 0.184246 0
0.116231 0.131204 0
0.167408 0.144577 0
-0.257113 0.188187 0
-0.264154 0.172079 0
-0.237883 0.196041 0
-0.234475 0.167903 0
-0.237883 0.196041 0
-0.234475 0.167903 0
-0.209605 0.192539 0
-0.208542 0.166849 0
-0.209605 0.192539 0
-0.208542 0.166849 0
-0.184627 0.190998 0
-0.187203 0.169824 0
-0.184627 0.190998 0
-0.187203 0.169824 0
-0.163342 0.194188 0
-0.165861 0.171811 0
-0.163342 0.194188 0
-0.165861 0.171811 0
-0.14199 0.197346 0
-0.144084 0.173349 0
-0.14199 0.197346 0
-0.144084 0.173349 0
-0.120608 0.199621 0
-0.122545 0.175121 0
-0.120608 0.199621 0
-0.122545 0.175121 0
-0.099347 0.201496 0
-0.101276 0.177111 0
-0.099347 0.201496 0
-0.101276 0.177111 0
-0.0783062 0.203306 0
-0.0802086 0.179125 0
-0.0783062 0.203306 0
-0.0802086 0.179125 0
-0.0574849 0.20513 0
-0.0593236 0.181023 0
-0.0574849 0.20513 0
-0.0593236 0.181023 0
-0.036944 0.206894 0
-0.0386154 0.182756 0
-0.036944 0.206894 0
-0.0386154 0.182756 0
-0.0164097 0.208523 0
-0.0179277 0.184308 0
-0.0164097 0.208523 0
-0.0179277 0.184308 0
0.00388815 0.209952 0
0.0025962 0.185669 0
0.00388815 0.209952 0
0.0025962 0.185669 0
0.0242368 0.211159 0
0.0231481 0.186822 0
0.0242368 0.211159 0
0.0231481 0.186822 0
0.0444602 0.212138 0
0.0436142 0.18775 0
0.0444602 0.212138 0
0.0436142 0.18775 0
0.0648072 0.212892 0
0.0641703 0.188451 0
0.0648072 0.212892 0
0.0641703 0.188451 0
0.085057 0.213389 0
0.0847027 0.188918 0
0.085057 0.213389 0
0.0847027 0.188918 0
0.105405 0.213562 0
0.105322 0.189143 0
0.105405 0.213562 0
0.105322 0.189143 0
0.125338 0.213323 0
0.125745 0.189025 0
0.125338 0.213323 0
0.125745 0.189025 0
0.145414 0.212871 0
0.146043 0.188396 0
0.145414 0.212871 0
0.146043 0.188396 0
0.165203 0.212728 0
0.165842 0.187225 0
0.165203 0.212728 0
0.165842 0.187225 0
0.185866 0.213396 0
0.185761 0.185931 0
0.185866 0.213396 0
0.185761 0.185931 0
0.204534 0.212978 0
0.206099 0.18483 0
0.204534 0.212978 0
0.206099 0.18483 0
0.21553 0.205839 0
0.224362 0.181497 0
0.21553 0.205839 0
0.224362 0.181497 0
0.20591 0.184246 0
0.231128 0.169242 0
0.20591 0.184246 0
0.231128 0.169242 0
0.167408 0.144577 0
0.210406 0.140713 0
-0.264154 0.172079 0
-0.261469 0.144334 0
-0.234475 0.167903 0
-0.233005 0.143951 0
-0.234475 0.167903 0
-0.233005 0.143951 0
-0.208542 0.166849 0
-0.210704 0.145496 0
-0.208542 0.166849 0
-0.210704 0.145496 0
-0.187203 0.169824 0
-0.18934 0.146745 0
-0.187203 0.169824 0
-0.18934 0.146745 0
-0.165861 0.171811 0
-0.167679 0.148653 0
-0.165861 0.171811 0
-0.167679 0.148653 0
-0.144084 0.173349 0
-0.145887 0.150657 0
-0.144084 0.173349 0
-0.145887 0.150657 0
-0.122545 0.175121 0
-0.124372 0.152443 0
-0.122545 0.175121 0
-0.124372 0.152443 0
-0.101276 0.177111 0
-0.103096 0.154076 0
-0.101276 0.177111 0
-0.103096 0.154076 0
-0.0802086 0.179125 0
-0.0819615 0.155637 0
-0.0802086 0.179125 0
-0.0819615 0.155637 0
-0.0593236 0.181023 0
-0.0610122 0.157183 0
-0.0593236 0.181023 0
-0.0610122 0.157183 0
-0.0386154 0.182756 0
-0.0401625 0.158697 0
-0.0386154 0.182756 0
-0.0401625 0.158697 0
-0.0179277 0.184308 0
-0.0193668 0.160142 0
-0.0179277 0.184308 0
-0.0193668 0.160142 0
0.0025962 0.185669 0
0.0013519 0.161471 0
0.0025962 0.185669 0
0.0013519 0.161471 0
0.0231481 0.186822 0
0.0220655 0.162647 0
0.0231481 0.186822 0
0.0220655 0.162647 0
0.0436142 0.18775 0
0.042784 0.163634 0
0.0436142 0.18775 0
0.042784 0.163634 0
0.0641703 0.188451 0
0.0635401 0.164394 0
0.0641703 0.188451 0
0.0635401 0.164394 0
0.0847027 0.188918 0
0.0843813 0.164884 0
0.0847027 0.188918 0
0.0843813 0.164884 0
0.105322 0.189143 0
0.10523 0.165061 0
0.105322 0.189143 0
0.10523 0.165061 0
0.125745 0.189025 0
0.126134 0.164881 0
0.125745 0.189025 0
0.126134 0.164881 0
0.146043 0.188396 0
0.146933 0.164212 0
0.146043 0.188396 0
0.146933 0.164212 0
0.165842 0.187225 0
0.167528 0.162808 0
0.165842 0.187225 0
0.167528 0.162808 0
0.185761 0.185931 0
0.187599 0.160539 0
0.185761 0.185931 0
0.187599 0.160539 0
0.206099 0.18483 0
0.208192 0.157695 0
0.206099 0.18483 0
0.208192 0.157695 0
0.224362 0.181497 0
0.229123 0.154101 0
0.224362 0.181497 0
0.229123 0.154101 0
0.231128 0.169242 0
0.246879 0.146008 0
0.231128 0.169242 0
0.246879 0.146008 0
0.210406 0.140713 0
0.243306 0.125982 0
-0.290475 0.144861 0
-0.291194 0.122268 0
-0.261469 0.144334 0
-0.259219 0.12115 0
-0.261469 0.144334 0
-0.259219 0.12115 0
-0.233005 0.143951 0
-0.233835 0.120102 0
-0.233005 0.143951 0
-0.233835 0.120102 0
-0.210704 0.145496 0
-0.21285 0.121605 0
-0.210704 0.145496 0
-0.21285 0.121605 0
-0.18934 0.146745 0
-0.191233 0.124363 0
-0.18934 0.146745 0
-0.191233 0.124363 0
-0.167679 0.148653 0
-0.169239 0.125933 0
-0.167679 0.148653 0
-0.169239 0.125933 0
-0.145887 0.150657 0
-0.147461 0.127091 0
-0.145887 0.150657 0
-0.147461 0.127091 0
-0.124372 0.152443 0
-0.125976 0.128484 0
-0.124372 0.152443 0
-0.125976 0.128484 0
-0.103096 0.154076 0
-0.104687 0.130046 0
-0.103096 0.154076 0
-0.104687 0.130046 0
-0.0819615 0.155637 0
-0.0835595 0.13167 0
-0.0819615 0.155637 0
-0.0835595 0.13167 0
-0.0610122 0.157183 0
-0.0625725 0.133269 0
-0.0610122 0.157183 0
-0.0625725 0.133269 0
-0.0401625 0.158697 0
-0.0416443 0.134791 0
-0.0401625 0.158697 0
-0.0416443 0.134791 0
-0.0193668 0.160142 0
-0.0207576 0.136212 0
-0.0193668 0.160142 0
-0.0207576 0.136212 0
0.0013519 0.161471 0
0.000102021 0.137516 0
0.0013519 0.161471 0
0.000102021 0.137516 0
0.0220655 0.162647 0
0.0209646 0.138681 0
0.0220655 0.162647 0
0.0209646 0.138681 0
0.042784 0.163634 0
0.0418925 0.139678 0
0.042784 0.163634 0
0.0418925 0.139678 0
0.0635401 0.164394 0
0.0628666 0.140474 0
0.0635401 0.164394 0
0.0628666 0.140474 0
0.0843813 0.164884 0
0.0840129 0.141024 0
0.0843813 0.164884 0
0.0840129 0.141024 0
0.10523 0.165061 0
0.105174 0.141261 0
0.10523 0.165061 0
0.105174 0.141261 0
0.126134 0.164881 0
0.126538 0.141095 0
0.126134 0.164881 0
0.126538 0.141095 0
0.146933 0.164212 0
0.147867 0.140418 0
0.146933 0.164212 0
0.147867 0.140418 0
0.167528 0.162808 0
0.169411 0.139019 0
0.167528 0.162808 0
0.169411 0.139019 0
0.187599 0.160539 0
0.19045 0.136546 0
0.187599 0.160539 0
0.19045 0.136546 0
0.208192 0.157695 0
0.211819 0.132931 0
0.208192 0.157695 0
0.211819 0.132931 0
0.229123 0.154101 0
0.233687 0.128296 0
0.229123 0.154101 0
0.233687 0.128296 0
0.246879 0.146008 0
0.257363 0.121461 0
0.246879 0.146008 0
0.257363 0.121461 0
0.243306 0.125982 0
0.267573 0.106897 0
-0.291194 0.122268 0
-0.289772 0.0980101 0
-0.259219 0.12115 0
-0.258173 0.0965003 0
-0.259219 0.12115 0
-0.258173 0.0965003 0
-0.233835 0.120102 0
-0.235867 0.0982938 0