# vtk DataFile Version 3.0
#This file was generated by the deal.II library on 2026/6/6 at 12:47:55
ASCII
DATASET UNSTRUCTURED_GRID

POINTS 100 double
0 0 0
0.2 0 0
0 0.2 0
0.2 0.2 0
0 0.2 0
0.2 0.2 0
0 0.4 0
0.2 0.4 0
0 0.4 0
0.2 0.4 0
0 0.6 0
0.2 0.6 0
0 0.6 0
0.2 0.6 0
0 0.8 0
0.2 0.8 0
0 0.8 0
0.2 0.8 0
0 1 0
0.2 1 0
0.2 0 0
0.4 0 0
0.2 0.2 0
0.4 0.2 0
0.2 0.2 0
0.4 0.2 0
0.2 0.4 0
0.4 0.4 0
0.2 0.4 0
0.4 0.4 0
0.2 0.6 0
0.4 0.6 0
0.2 0.6 0
0.4 0.6 0
0.2 0.8 0
0.4 0.8 0
0.2 0.8 0
0.4 0.8 0
0.2 1 0
0.4 1 0
0.4 0 0
0.6 0 0
0.4 0.2 0
0.6 0.2 0
0.4 0.2 0
0.6 0.2 0
0.4 0.4 0
0.6 0.4 0
0.4 0.4 0
0.6 0.4 0
0.4 0.6 0
0.6 0.6 0
0.4 0.6 0
0.6 0.6 0
0.4 0.8 0
0.6 0.8 0
0.4 0.8 0
0.6 0.8 0
0.4 1 0
0.6 1 0
0.6 0 0
0.8 0 0
0.6 0.2 0
0.8 0.2 0
0.6 0.2 0
0.8 0.2 0
0.6 0.4 0
0.8 0.4 0
0.6 0.4 0
0.8 0.4 0
0.6 0.6 0
0.8 0.6 0
0.6 0.6 0
0.8 0.6 0
0.6 0.8 0
0.8 0.8 0
0.6 0.8 0
0.8 0.8 0
0.6 1 0
0.8 1 0
0.8 0 0
1 0 0
0.8 0.2 0
1 0.2 0
0.8 0.2 0
1 0.2 0
0.8 0.4 0
1 0.4 0
0.8 0.4 0
1 0.4 0
0.8 0.6 0
1 0.6 0
0.8 0.6 0
1 0.6 0
0.8 0.8 0
1 0.8 0
0.8 0.8 0
1 0.8 0
0.8 1 0
1 1 0

CELLS 25 125
4	0	1	3	2
4	4	5	7	6
4	8	9	11	10
4	12	13	15	14
4	16	17	19	18
4	20	21	23	22
4	24	25	27	26
4	28	29	31	30
4	32	33	35	34
4	36	37	39	38
4	40	41	43	42
4	44	45	47	46
4	48	49	51	50
4	52	53	55	54
4	56	57	59	58
4	60	61	63	62
4	64	65	67	66
4	68	69	71	70
4	72	73	75	74
4	76	77	79	78
4	80	81	83	82
4	84	85	87	86
4	88	89	91	90
4	92	93	95	94
4	96	97	99	98

CELL_TYPES 25
 9 9 9 9 9 9 9 9 9 9 9 9 9 9 9 9 9 9 9 9 9 9 9 9 9
POINT_DATA 100
VECTORS velocity double
0 0 0
0.587785 0 0
0 -0.587785 0
0.475604 -0.475963 0
0 -0.587785 0
0.475604 -0.475963 0
0 -0.951057 0
0.181497 -0.769562 0
0 -0.951057 0
0.181497 -0.769562 0
0 -0.951057 0
-0.181865 -0.769319 0
0 -0.951057 0
-0.181865 -0.769319 0
0 -0.587785 0
-0.475934 -0.475539 0
0 -0.587785 0
-0.475934 -0.475539 0
0 -1.22465e-16 0
-0.587785 -9.9076e-17 0
0.587785 0 0
0.951057 0 0
0.475604 -0.475963 0
0.769413 -0.181972 0
0.475604 -0.475963 0
0.769413 -0.181972 0
0.181497 -0.769562 0
0.293806 -0.294206 0
0.181497 -0.769562 0
0.293806 -0.294206 0
-0.181865 -0.769319 0
-0.294134 -0.293765 0
-0.181865 -0.769319 0
-0.294134 -0.293765 0
-0.475934 -0.475539 0
-0.769522 -0.181482 0
-0.475934 -0.475539 0
-0.769522 -0.181482 0
-0.587785 -9.9076e-17 0
-0.951057 -3.78437e-17 0
0.951057 0 0
0.951057 0 0
0.769413 -0.181972 0
0.769537 0.181387 0
0.769413 -0.181972 0
0.769537 0.181387 0
0.293806 -0.294206 0
0.294199 0.293675 0
0.293806 -0.294206 0
0.294199 0.293675 0
-0.294134 -0.293765 0
-0.293634 0.294128 0
-0.294134 -0.293765 0
-0.293634 0.294128 0
-0.769522 -0.181482 0
-0.769248 0.181798 0
-0.769522 -0.181482 0
-0.769248 0.181798 0
-0.951057 -3.78437e-17 0
-0.951057 3.78437e-17 0
0.951057 0 0
0.587785 0 0
0.769537 0.181387 0
0.475761 0.47553 0
0.769537 0.181387 0
0.475761 0.47553 0
0.294199 0.293675 0
0.181905 0.769342 0
0.294199 0.293675 0
0.181905 0.769342 0
-0.293634 0.294128 0
-0.181372 0.769498 0
-0.293634 0.294128 0
-0.181372 0.769498 0
-0.769248 0.181798 0
-0.475465 0.475732 0
-0.769248 0.181798 0
-0.475465 0.475732 0
-0.951057 3.78437e-17 0
-0.587785 9.9076e-17 0
0.587785 0 0
1.22465e-16 0 0
0.475761 0.47553 0
9.9076e-17 0.587785 0
0.475761 0.47553 0
9.9076e-17 0.587785 0
0.181905 0.769342 0
3.78437e-17 0.951057 0
0.181905 0.769342 0
3.78437e-17 0.951057 0
-0.181372 0.769498 0
-3.78437e-17 0.951057 0
-0.181372 0.769498 0
-3.78437e-17 0.951057 0
-0.475465 0.475732 0
-9.9076e-17 0.587785 0
-0.475465 0.475732 0
-9.9076e-17 0.587785 0
-0.587785 9.9076e-17 0
-1.22465e-16 1.22465e-16 0
VECTORS velocity_error double
0 0 0
0 0 0
0 0 0
-7.61882e-05 0.000434681 0
0 0 0
-7.61882e-05 0.000434681 0
0 0 0
0.000138641 0.000140623 0
0 0 0
0.000138641 0.000140623 0
0 0 0
0.000229869 -0.00010181 0
0 0 0
0.000229869 -0.00010181 0
0 0 0
0.000405784 1.07998e-05 0
0 0 0
0.000405784 1.07998e-05 0
0 0 0
0 0 0
0 0 0
0 0 0
-7.61882e-05 0.000434681 0
7.78198e-06 0.000336758 0
-7.61882e-05 0.000434681 0
7.78198e-06 0.000336758 0
0.000138641 0.000140623 0
8.67932e-05 0.000313258 0
0.000138641 0.000140623 0
8.67932e-05 0.000313258 0
0.000229869 -0.00010181 0
0.000241355 -0.000127611 0
0.000229869 -0.00010181 0
0.000241355 -0.000127611 0
0.000405784 1.07998e-05 0
0.000101284 -0.000154044 0
0.000405784 1.07998e-05 0
0.000101284 -0.000154044 0
0 0 0
0 0 0
0 0 0
0 0 0
7.78198e-06 0.000336758 0
-0.000116468 0.000248517 0
7.78198e-06 0.000336758 0
-0.000116468 0.000248517 0
8.67932e-05 0.000313258 0
-0.00030686 0.000217323 0
8.67932e-05 0.000313258 0
-0.00030686 0.000217323 0
0.000241355 -0.000127611 0
-0.000258138 -0.000234949 0
0.000241355 -0.000127611 0
-0.000258138 -0.000234949 0
0.000101284 -0.000154044 0
-0.000173045 -0.000162149 0
0.000101284 -0.000154044 0
-0.000173045 -0.000162149 0
0 0 0
0 0 0
0 0 0
0 0 0
-0.000116468 0.000248517 0
-0.000233102 -1.6657e-06 0
-0.000116468 0.000248517 0
-0.000233102 -1.6657e-06 0
-0.00030686 0.000217323 0
-0.000269042 7.90261e-05 0
-0.00030686 0.000217323 0
-0.000269042 7.90261e-05 0
-0.000258138 -0.000234949 0
-0.000263923 -7.71263e-05 0
-0.000258138 -0.000234949 0
-0.000263923 -7.71263e-05 0
-0.000173045 -0.000162149 0
-6.371e-05 -0.000204204 0
-0.000173045 -0.000162149 0
-6.371e-05 -0.000204204 0
0 0 0
0 0 0
0 0 0
0 0 0
-0.000233102 -1.6657e-06 0
0 0 0
-0.000233102 -1.6657e-06 0
0 0 0
-0.000269042 7.90261e-05 0
0 0 0
-0.000269042 7.90261e-05 0
0 0 0
-0.000263923 -7.71263e-05 0
0 0 0
-0.000263923 -7.71263e-05 0
0 0 0
-6.371e-05 -0.000204204 0
0 0 0
-6.371e-05 -0.000204204 0
0 0 0
0 0 0
0 0 0
SCALARS pressure double 1
LOOKUP_TABLE default
-0.0031994 -0.00212027 0.588441 0.476083 0.588441 0.476083 0.952969 0.770906 0.952969 0.770906 0.953042 0.770984 0.953042 0.770984 0.588607 0.476142 0.588607 0.476142 -0.00329247 -0.00224978 -0.00212027 -0.000806484 0.476083 0.181816 0.476083 0.181816 0.770906 0.294387 0.770906 0.294387 0.770984 0.294424 0.770984 0.294424 0.476142 0.181817 0.476142 0.181817 -0.00224978 -0.000842626 -0.000806484 0.00079678 0.181816 -0.181986 0.181816 -0.181986 0.294387 -0.294617 0.294387 -0.294617 0.294424 -0.29458 0.294424 -0.29458 0.181817 -0.181911 0.181817 -0.181911 -0.000842626 0.000783118 0.00079678 0.00219346 -0.181986 -0.476271 -0.181986 -0.476271 -0.294617 -0.771078 -0.294617 -0.771078 -0.29458 -0.771076 -0.29458 -0.771076 -0.181911 -0.476211 -0.181911 -0.476211 0.000783118 0.00222596 0.00219346 0.00343131 -0.476271 -0.588501 -0.476271 -0.588501 -0.771078 -0.953066 -0.771078 -0.953066 -0.771076 -0.953015 -0.771076 -0.953015 -0.476211 -0.588497 -0.476211 -0.588497 0.00222596 0.00333825 
SCALARS pressure_error double 1
LOOKUP_TABLE default
0.0031994 0.00212027 -0.000655913 -0.000554494 -0.000655913 -0.000554494 -0.00191246 -0.00148554 -0.00191246 -0.00148554 -0.00198584 -0.00156272 -0.00198584 -0.00156272 -0.00082168 -0.000614098 -0.00082168 -0.000614098 0.00329247 0.00224977 0.00212027 0.00080648 -0.000554494 -0.000180602 -0.000554494 -0.000180602 -0.00148554 -0.000494814 -0.00148554 -0.000494814 -0.00156272 -0.000531406 -0.00156272 -0.000531406 -0.000614098 -0.000180993 -0.000614098 -0.000180993 0.00224977 0.000842623 0.00080648 -0.000796783 -0.000180602 0.000350795 -0.000180602 0.000350795 -0.000494814 0.00072411 -0.000494814 0.00072411 -0.000531406 0.000687516 -0.000531406 0.000687516 -0.000180993 0.000274897 -0.000180993 0.000274897 0.000842623 -0.000783121 -0.000796783 -0.00219346 0.000350795 0.000742419 0.000350795 0.000742419 0.00072411 0.00165702 0.00072411 0.00165702 0.000687516 0.00165535 0.000687516 0.00165535 0.000274897 0.000682808 0.000274897 0.000682808 -0.000783121 -0.00222597 -0.00219346 -0.00343131 0.000742419 0.000715997 0.000742419 0.000715997 0.00165702 0.00200921 0.00165702 0.00200921 0.00165535 0.00195832 0.00165535 0.00195832 0.000682808 0.000712218 0.000682808 0.000712218 -0.00222597 -0.00333825 
SCALARS temperature double 1
LOOKUP_TABLE default
0 0 0 0 0 0 0 0 0 0 0 0 0 0 0 0 0 0 0 0 0 0 0 0 0 0 0 0 0 0 0 0 0 0 0 0 0 0 0 0 0 0 0 0 0 0 0 0 0 0 0 0 0 0 0 0 0 0 0 0 0 0 0 0 0 0 0 0 0 0 0 0 0 0 0 0 0 0 0 0 0 0 0 0 0 0 0 0 0 0 0 0 0 0 0 0 0 0 0 0 
SCALARS temperature_error double 1
LOOKUP_TABLE default
0 0 0.587785 0.181636 0.587785 0.181636 0.951057 0.293893 0.951057 0.293893 0.951057 0.293893 0.951057 0.293893 0.587785 0.181636 0.587785 0.181636 1.22465e-16 3.78437e-17 0 0 0.181636 -0.475528 0.181636 -0.475528 0.293893 -0.769421 0.293893 -0.769421 0.293893 -0.769421 0.293893 -0.769421 0.181636 -0.475528 0.181636 -0.475528 3.78437e-17 -9.9076e-17 0 0 -0.475528 -0.475528 -0.475528 -0.475528 -0.769421 -0.769421 -0.769421 -0.769421 -0.769421 -0.769421 -0.769421 -0.769421 -0.475528 -0.475528 -0.475528 -0.475528 -9.9076e-17 -9.9076e-17 0 0 -0.475528 0.181636 -0.475528 0.181636 -0.769421 0.293893 -0.769421 0.293893 -0.769421 0.293893 -0.769421 0.293893 -0.475528 0.181636 -0.475528 0.181636 -9.9076e-17 3.78437e-17 0 0 0.181636 0.587785 0.181636 0.587785 0.293893 0.951057 0.293893 0.951057 0.293893 0.951057 0.293893 0.951057 0.181636 0.587785 0.181636 0.587785 3.78437e-17 1.22465e-16 
