# vtk DataFile Version 3.0
#This file was generated by the deal.II library on 2026/3/26 at 14:59:46
ASCII
DATASET UNSTRUCTURED_GRID

POINTS 10128 double
0 0 0
0.214286 0 0
0 0.25 0
0.214286 0.25 0
0 0.25 0
0.214286 0.25 0
0 0.5 0
0.214286 0.5 0
0.214286 0 0
0.428571 0 0
0.214286 0.25 0
0.428571 0.25 0
0.214286 0.25 0
0.428571 0.25 0
0.214286 0.5 0
0.428571 0.5 0
0.428571 0 0
0.642857 0 0
0.428571 0.25 0
0.642857 0.25 0
0.428571 0.25 0
0.642857 0.25 0
0.428571 0.5 0
0.642857 0.5 0
0.642857 0 0
0.857143 0 0
0.642857 0.25 0
0.857143 0.25 0
0.642857 0.25 0
0.857143 0.25 0
0.642857 0.5 0
0.857143 0.5 0
0.857143 0 0
1.07143 0 0
0.857143 0.25 0
1.07143 0.25 0
0.857143 0.25 0
1.07143 0.25 0
0.857143 0.5 0
1.07143 0.5 0
1.07143 0 0
1.28571 0 0
1.07143 0.25 0
1.28571 0.25 0
1.07143 0.25 0
1.28571 0.25 0
1.07143 0.5 0
1.28571 0.5 0
1.28571 0 0
1.5 0 0
1.28571 0.25 0
1.5 0.25 0
1.28571 0.25 0
1.5 0.25 0
1.28571 0.5 0
1.5 0.5 0
0 3 0
0 2.75 0
0.214286 3 0
0.214286 2.75 0
0.214286 3 0
0.214286 2.75 0
0.428571 3 0
0.428571 2.75 0
0.428571 3 0
0.428571 2.75 0
0.642857 3 0
0.642857 2.75 0
0.642857 3 0
0.642857 2.75 0
0.857143 3 0
0.857143 2.75 0
0.857143 3 0
0.857143 2.75 0
1.07143 3 0
1.07143 2.75 0
1.07143 3 0
1.07143 2.75 0
1.28571 3 0
1.28571 2.75 0
1.28571 3 0
1.28571 2.75 0
1.5 3 0
1.5 2.75 0
0 2.75 0
0 2.5 0
0.214286 2.75 0
0.214286 2.5 0
0.214286 2.75 0
0.214286 2.5 0
0.428571 2.75 0
0.428571 2.5 0
0.428571 2.75 0
0.428571 2.5 0
0.642857 2.75 0
0.642857 2.5 0
0.642857 2.75 0
0.642857 2.5 0
0.857143 2.75 0
0.857143 2.5 0
0.857143 2.75 0
0.857143 2.5 0
1.07143 2.75 0
1.07143 2.5 0
1.07143 2.75 0
1.07143 2.5 0
1.28571 2.75 0
1.28571 2.5 0
1.28571 2.75 0
1.28571 2.5 0
1.5 2.75 0
1.5 2.5 0
0 0.5 0
0.107143 0.5 0
0 0.625 0
0.107143 0.625 0
0.107143 0.5 0
0.214286 0.5 0
0.107143 0.625 0
0.214286 0.625 0
0 0.625 0
0.107143 0.625 0
0 0.75 0
0.107143 0.75 0
0.107143 0.625 0
0.214286 0.625 0
0.107143 0.75 0
0.214286 0.75 0
0.214286 0.5 0
0.321429 0.5 0
0.214286 0.625 0
0.321429 0.625 0
0.321429 0.5 0
0.428571 0.5 0
0.321429 0.625 0
0.428571 0.625 0
0.214286 0.625 0
0.321429 0.625 0
0.214286 0.75 0
0.321429 0.75 0
0.321429 0.625 0
0.428571 0.625 0
0.321429 0.75 0
0.428571 0.75 0
0.428571 0.5 0
0.535714 0.5 0
0.428571 0.625 0
0.535714 0.625 0
0.535714 0.5 0
0.642857 0.5 0
0.535714 0.625 0
0.642857 0.625 0
0.428571 0.625 0
0.535714 0.625 0
0.428571 0.75 0
0.535714 0.75 0
0.535714 0.625 0
0.642857 0.625 0
0.535714 0.75 0
0.642857 0.75 0
0.642857 0.5 0
0.75 0.5 0
0.642857 0.625 0
0.75 0.625 0
0.75 0.5 0
0.857143 0.5 0
0.75 0.625 0
0.857143 0.625 0
0.642857 0.625 0
0.75 0.625 0
0.642857 0.75 0
0.75 0.75 0
0.75 0.625 0
0.857143 0.625 0
0.75 0.75 0
0.857143 0.75 0
0.857143 0.5 0
0.964286 0.5 0
0.857143 0.625 0
0.964286 0.625 0
0.964286 0.5 0
1.07143 0.5 0
0.964286 0.625 0
1.07143 0.625 0
0.857143 0.625 0
0.964286 0.625 0
0.857143 0.75 0
0.964286 0.75 0
0.964286 0.625 0
1.07143 0.625 0
0.964286 0.75 0
1.07143 0.75 0
1.07143 0.5 0
1.17857 0.5 0
1.07143 0.625 0
1.17857 0.625 0
1.17857 0.5 0
1.28571 0.5 0
1.17857 0.625 0
1.28571 0.625 0
1.07143 0.625 0
1.17857 0.625 0
1.07143 0.75 0
1.17857 0.75 0
1.17857 0.625 0
1.28571 0.625 0
1.17857 0.75 0
1.28571 0.75 0
1.28571 0.5 0
1.39286 0.5 0
1.28571 0.625 0
1.39286 0.625 0
1.39286 0.5 0
1.5 0.5 0
1.39286 0.625 0
1.5 0.625 0
1.28571 0.625 0
1.39286 0.625 0
1.28571 0.75 0
1.39286 0.75 0
1.39286 0.625 0
1.5 0.625 0
1.39286 0.75 0
1.5 0.75 0
1.5 0.5 0
1.60714 0.5 0
1.5 0.625 0
1.60714 0.625 0
1.60714 0.5 0
1.71429 0.5 0
1.60714 0.625 0
1.71429 0.625 0
1.5 0.625 0
1.60714 0.625 0
1.5 0.75 0
1.60714 0.75 0
1.60714 0.625 0
1.71429 0.625 0
1.60714 0.75 0
1.71429 0.75 0
2.14286 0.5 0
2.25 0.5 0
2.14286 0.625 0
2.25 0.625 0
2.25 0.5 0
2.35714 0.5 0
2.25 0.625 0
2.35714 0.625 0
2.14286 0.625 0
2.25 0.625 0
2.14286 0.75 0
2.25 0.75 0
2.25 0.625 0
2.35714 0.625 0
2.25 0.75 0
2.35714 0.75 0
2.35714 0.5 0
2.46429 0.5 0
2.35714 0.625 0
2.46429 0.625 0
2.46429 0.5 0
2.57143 0.5 0
2.46429 0.625 0
2.57143 0.625 0
2.35714 0.625 0
2.46429 0.625 0
2.35714 0.75 0
2.46429 0.75 0
2.46429 0.625 0
2.57143 0.625 0
2.46429 0.75 0
2.57143 0.75 0
0 1.75 0
0 1.625 0
0.107143 1.75 0
0.107143 1.625 0
0 1.625 0
0 1.5 0
0.107143 1.625 0
0.107143 1.5 0
0.107143 1.75 0
0.107143 1.625 0
0.214286 1.75 0
0.214286 1.625 0
0.107143 1.625 0
0.107143 1.5 0
0.214286 1.625 0
0.214286 1.5 0
0.214286 1.75 0
0.214286 1.625 0
0.321429 1.75 0
0.321429 1.625 0
0.214286 1.625 0
0.214286 1.5 0
0.321429 1.625 0
0.321429 1.5 0
0.321429 1.75 0
0.321429 1.625 0
0.428571 1.75 0
0.428571 1.625 0
0.321429 1.625 0
0.321429 1.5 0
0.428571 1.625 0
0.428571 1.5 0
0.428571 1.75 0
0.428571 1.625 0
0.535714 1.75 0
0.535714 1.625 0
0.428571 1.625 0
0.428571 1.5 0
0.535714 1.625 0
0.535714 1.5 0
0.535714 1.75 0
0.535714 1.625 0
0.642857 1.75 0
0.642857 1.625 0
0.535714 1.625 0
0.535714 1.5 0
0.642857 1.625 0
0.642857 1.5 0
0.642857 1.75 0
0.642857 1.625 0
0.75 1.75 0
0.75 1.625 0
0.642857 1.625 0
0.642857 1.5 0
0.75 1.625 0
0.75 1.5 0
0.75 1.75 0
0.75 1.625 0
0.857143 1.75 0
0.857143 1.625 0
0.75 1.625 0
0.75 1.5 0
0.857143 1.625 0
0.857143 1.5 0
0.857143 1.75 0
0.857143 1.625 0
0.964286 1.75 0
0.964286 1.625 0
0.857143 1.625 0
0.857143 1.5 0
0.964286 1.625 0
0.964286 1.5 0
0.964286 1.75 0
0.964286 1.625 0
1.07143 1.75 0
1.07143 1.625 0
0.964286 1.625 0
0.964286 1.5 0
1.07143 1.625 0
1.07143 1.5 0
1.07143 1.75 0
1.07143 1.625 0
1.17857 1.75 0
1.17857 1.625 0
1.07143 1.625 0
1.07143 1.5 0
1.17857 1.625 0
1.17857 1.5 0
1.17857 1.75 0
1.17857 1.625 0
1.28571 1.75 0
1.28571 1.625 0
1.17857 1.625 0
1.17857 1.5 0
1.28571 1.625 0
1.28571 1.5 0
1.28571 1.75 0
1.28571 1.625 0
1.39286 1.75 0
1.39286 1.625 0
1.28571 1.625 0
1.28571 1.5 0
1.39286 1.625 0
1.39286 1.5 0
1.39286 1.75 0
1.39286 1.625 0
1.5 1.75 0
1.5 1.625 0
1.39286 1.625 0
1.39286 1.5 0
1.5 1.625 0
1.5 1.5 0
1.5 1.75 0
1.5 1.625 0
1.60714 1.75 0
1.60714 1.625 0
1.5 1.625 0
1.5 1.5 0
1.60714 1.625 0
1.60714 1.5 0
1.60714 1.75 0
1.60714 1.625 0
1.71429 1.75 0
1.71429 1.625 0
1.60714 1.625 0
1.60714 1.5 0
1.71429 1.625 0
1.71429 1.5 0
1.71429 1.75 0
1.71429 1.625 0
1.82143 1.75 0
1.82143 1.625 0
1.71429 1.625 0
1.71429 1.5 0
1.82143 1.625 0
1.82143 1.5 0
1.82143 1.75 0
1.82143 1.625 0
1.92857 1.75 0
1.92857 1.625 0
1.82143 1.625 0
1.82143 1.5 0
1.92857 1.625 0
1.92857 1.5 0
1.92857 1.75 0
1.92857 1.625 0
2.03571 1.75 0
2.03571 1.625 0
1.92857 1.625 0
1.92857 1.5 0
2.03571 1.625 0
2.03571 1.5 0
2.03571 1.75 0
2.03571 1.625 0
2.14286 1.75 0
2.14286 1.625 0
2.03571 1.625 0
2.03571 1.5 0
2.14286 1.625 0
2.14286 1.5 0
2.14286 1.75 0
2.14286 1.625 0
2.25 1.75 0
2.25 1.625 0
2.14286 1.625 0
2.14286 1.5 0
2.25 1.625 0
2.25 1.5 0
2.25 1.75 0
2.25 1.625 0
2.35714 1.75 0
2.35714 1.625 0
2.25 1.625 0
2.25 1.5 0
2.35714 1.625 0
2.35714 1.5 0
2.35714 1.75 0
2.35714 1.625 0
2.46429 1.75 0
2.46429 1.625 0
2.35714 1.625 0
2.35714 1.5 0
2.46429 1.625 0
2.46429 1.5 0
2.46429 1.75 0
2.46429 1.625 0
2.57143 1.75 0
2.57143 1.625 0
2.46429 1.625 0
2.46429 1.5 0
2.57143 1.625 0
2.57143 1.5 0
2.57143 1.75 0
2.57143 1.625 0
2.67857 1.75 0
2.67857 1.625 0
2.57143 1.625 0
2.57143 1.5 0
2.67857 1.625 0
2.67857 1.5 0
2.67857 1.75 0
2.67857 1.625 0
2.78571 1.75 0
2.78571 1.625 0
2.67857 1.625 0
2.67857 1.5 0
2.78571 1.625 0
2.78571 1.5 0
0 1.5 0
0 1.375 0
0.107143 1.5 0
0.107143 1.375 0
0 1.375 0
0 1.25 0
0.107143 1.375 0
0.107143 1.25 0
0.107143 1.5 0
0.107143 1.375 0
0.214286 1.5 0
0.214286 1.375 0
0.107143 1.375 0
0.107143 1.25 0
0.214286 1.375 0
0.214286 1.25 0
0.214286 1.5 0
0.214286 1.375 0
0.321429 1.5 0
0.321429 1.375 0
0.214286 1.375 0
0.214286 1.25 0
0.321429 1.375 0
0.321429 1.25 0
0.321429 1.5 0
0.321429 1.375 0
0.428571 1.5 0
0.428571 1.375 0
0.321429 1.375 0
0.321429 1.25 0
0.428571 1.375 0
0.428571 1.25 0
0.428571 1.5 0
0.428571 1.375 0
0.535714 1.5 0
0.535714 1.375 0
0.428571 1.375 0
0.428571 1.25 0
0.535714 1.375 0
0.535714 1.25 0
0.535714 1.5 0
0.535714 1.375 0
0.642857 1.5 0
0.642857 1.375 0
0.535714 1.375 0
0.535714 1.25 0
0.642857 1.375 0
0.642857 1.25 0
0.642857 1.5 0
0.642857 1.375 0
0.75 1.5 0
0.75 1.375 0
0.642857 1.375 0
0.642857 1.25 0
0.75 1.375 0
0.75 1.25 0
0.75 1.5 0
0.75 1.375 0
0.857143 1.5 0
0.857143 1.375 0
0.75 1.375 0
0.75 1.25 0
0.857143 1.375 0
0.857143 1.25 0
0.857143 1.5 0
0.857143 1.375 0
0.964286 1.5 0
0.964286 1.375 0
0.857143 1.375 0
0.857143 1.25 0
0.964286 1.375 0
0.964286 1.25 0
0.964286 1.5 0
0.964286 1.375 0
1.07143 1.5 0
1.07143 1.375 0
0.964286 1.375 0
0.964286 1.25 0
1.07143 1.375 0
1.07143 1.25 0
1.07143 1.5 0
1.07143 1.375 0
1.17857 1.5 0
1.17857 1.375 0
1.07143 1.375 0
1.07143 1.25 0
1.17857 1.375 0
1.17857 1.25 0
1.17857 1.5 0
1.17857 1.375 0
1.28571 1.5 0
1.28571 1.375 0
1.17857 1.375 0
1.17857 1.25 0
1.28571 1.375 0
1.28571 1.25 0
1.28571 1.5 0
1.28571 1.375 0
1.39286 1.5 0
1.39286 1.375 0
1.28571 1.375 0
1.28571 1.25 0
1.39286 1.375 0
1.39286 1.25 0
1.39286 1.5 0
1.39286 1.375 0
1.5 1.5 0
1.5 1.375 0
1.39286 1.375 0
1.39286 1.25 0
1.5 1.375 0
1.5 1.25 0
1.5 1.5 0
1.5 1.375 0
1.60714 1.5 0
1.60714 1.375 0
1.5 1.375 0
1.5 1.25 0
1.60714 1.375 0
1.60714 1.25 0
1.60714 1.5 0
1.60714 1.375 0
1.71429 1.5 0
1.71429 1.375 0
1.60714 1.375 0
1.60714 1.25 0
1.71429 1.375 0
1.71429 1.25 0
1.71429 1.5 0
1.71429 1.375 0
1.82143 1.5 0
1.82143 1.375 0
1.71429 1.375 0
1.71429 1.25 0
1.82143 1.375 0
1.82143 1.25 0
1.82143 1.5 0
1.82143 1.375 0
1.92857 1.5 0
1.92857 1.375 0
1.82143 1.375 0
1.82143 1.25 0
1.92857 1.375 0
1.92857 1.25 0
1.92857 1.5 0
1.92857 1.375 0
2.03571 1.5 0
2.03571 1.375 0
1.92857 1.375 0
1.92857 1.25 0
2.03571 1.375 0
2.03571 1.25 0
2.03571 1.5 0
2.03571 1.375 0
2.14286 1.5 0
2.14286 1.375 0
2.03571 1.375 0
2.03571 1.25 0
2.14286 1.375 0
2.14286 1.25 0
2.14286 1.5 0
2.14286 1.375 0
2.25 1.5 0
2.25 1.375 0
2.14286 1.375 0
2.14286 1.25 0
2.25 1.375 0
2.25 1.25 0
2.25 1.5 0
2.25 1.375 0
2.35714 1.5 0
2.35714 1.375 0
2.25 1.375 0
2.25 1.25 0
2.35714 1.375 0
2.35714 1.25 0
2.35714 1.5 0
2.35714 1.375 0
2.46429 1.5 0
2.46429 1.375 0
2.35714 1.375 0
2.35714 1.25 0
2.46429 1.375 0
[...]
POINT_DATA 10128
VECTORS velocity double
0 0 0
0 0 0
0 0 0
0.000145663 -0.000197334 0
0 0 0
0.000145663 -0.000197334 0
0 0 0
-0.000684728 0.000412375 0
0 0 0
0 0 0
0.000145663 -0.000197334 0
0.000444788 -0.000187834 0
0.000145663 -0.000197334 0
0.000444788 -0.000187834 0
-0.000684728 0.000412375 0
-0.00191613 0.00027898 0
0 0 0
0 0 0
0.000444788 -0.000187834 0
0.000833961 -0.00029783 0
0.000444788 -0.000187834 0
0.000833961 -0.00029783 0
-0.00191613 0.00027898 0
-0.00290418 -7.57499e-05 0
0 0 0
0 0 0
0.000833961 -0.00029783 0
0.00134095 -0.000318281 0
0.000833961 -0.00029783 0
0.00134095 -0.000318281 0
-0.00290418 -7.57499e-05 0
-0.00346058 -0.000488309 0
0 0 0
0 0 0
0.00134095 -0.000318281 0
0.0017064 -0.000123832 0
0.00134095 -0.000318281 0
0.0017064 -0.000123832 0
-0.00346058 -0.000488309 0
-0.00330529 -0.000560724 0
0 0 0
0 0 0
0.0017064 -0.000123832 0
0.00162192 0.000216942 0
0.0017064 -0.000123832 0
0.00162192 0.000216942 0
-0.00330529 -0.000560724 0
-0.00287554 0.000259835 0
0 0 0
0 0 0
0.00162192 0.000216942 0
0.000600814 0.000977697 0
0.00162192 0.000216942 0
0.000600814 0.000977697 0
-0.00287554 0.000259835 0
-0.0039375 0.00339009 0
0 0 0
0 0 0
0 0 0
0.000145663 0.000197334 0
0 0 0
0.000145663 0.000197334 0
0 0 0
0.000444788 0.000187834 0
0 0 0
0.000444788 0.000187834 0
0 0 0
0.000833961 0.00029783 0
0 0 0
0.000833961 0.00029783 0
0 0 0
0.00134095 0.000318281 0
0 0 0
0.00134095 0.000318281 0
0 0 0
0.0017064 0.000123832 0
0 0 0
0.0017064 0.000123832 0
0 0 0
0.00162192 -0.000216942 0
0 0 0
0.00162192 -0.000216942 0
0 0 0
0.000600814 -0.000977697 0
0 0 0
0 0 0
0.000145663 0.000197334 0
-0.000684728 -0.000412375 0
0.000145663 0.000197334 0
-0.000684728 -0.000412375 0
0.000444788 0.000187834 0
-0.00191613 -0.00027898 0
0.000444788 0.000187834 0
-0.00191613 -0.00027898 0
0.000833961 0.00029783 0
-0.00290418 7.57499e-05 0
0.000833961 0.00029783 0
-0.00290418 7.57499e-05 0
0.00134095 0.000318281 0
-0.00346058 0.000488309 0
0.00134095 0.000318281 0
-0.00346058 0.000488309 0
0.0017064 0.000123832 0
-0.00330529 0.000560724 0
0.0017064 0.000123832 0
-0.00330529 0.000560724 0
0.00162192 -0.000216942 0
-0.00287554 -0.000259835 0
0.00162192 -0.000216942 0
-0.00287554 -0.000259835 0
0.000600814 -0.000977697 0
-0.0039375 -0.00339009 0
0 0 0
-0.000173025 0.000208174 0
0 0 0
-0.000485216 0.000975638 0
-0.000173025 0.000208174 0
-0.000684728 0.000412375 0
-0.000485216 0.000975638 0
-0.00146016 0.00138415 0
0 0 0
-0.000485216 0.000975638 0
0 0 0
-0.00078495 0.00247335 0
-0.000485216 0.000975638 0
-0.00146016 0.00138415 0
-0.00078495 0.00247335 0
-0.00211008 0.00259868 0
-0.000684728 0.000412375 0
-0.00133265 0.000346496 0
-0.00146016 0.00138415 0
-0.00244059 0.00128258 0
-0.00133265 0.000346496 0
-0.00191613 0.00027898 0
-0.00244059 0.00128258 0
-0.00338603 0.00113514 0
-0.00146016 0.00138415 0
-0.00244059 0.00128258 0
-0.00211008 0.00259868 0
-0.00307897 0.00237206 0
-0.00244059 0.00128258 0
-0.00338603 0.00113514 0
-0.00307897 0.00237206 0
-0.00388834 0.00212251 0
-0.00191613 0.00027898 0
-0.00243876 0.000102058 0
-0.00338603 0.00113514 0
-0.004294 0.000923261 0
-0.00243876 0.000102058 0
-0.00290418 -7.57499e-05 0
-0.004294 0.000923261 0
-0.00517029 0.000676264 0
-0.00338603 0.00113514 0
-0.004294 0.000923261 0
-0.00388834 0.00212251 0
-0.00462977 0.0018886 0
-0.004294 0.000923261 0
-0.00517029 0.000676264 0
-0.00462977 0.0018886 0
-0.00537669 0.00163135 0
-0.00290418 -7.57499e-05 0
-0.00326162 -0.000282847 0
-0.00517029 0.000676264 0
-0.0059954 0.00035202 0
-0.00326162 -0.000282847 0
-0.00346058 -0.000488309 0
-0.0059954 0.00035202 0
-0.00674709 -7.53001e-06 0
-0.00517029 0.000676264 0
-0.0059954 0.00035202 0
-0.00537669 0.00163135 0
-0.00619217 0.00133517 0
-0.0059954 0.00035202 0
-0.00674709 -7.53001e-06 0
-0.00619217 0.00133517 0
-0.00710741 0.000975078 0
-0.00346058 -0.000488309 0
-0.00348154 -0.000526738 0
-0.00674709 -7.53001e-06 0
-0.00729791 -0.00033474 0
-0.00348154 -0.000526738 0
-0.00330529 -0.000560724 0
-0.00729791 -0.00033474 0
-0.00758423 -0.000618724 0
-0.00674709 -7.53001e-06 0
-0.00729791 -0.00033474 0
-0.00710741 0.000975078 0
-0.00813332 0.000539069 0
-0.00729791 -0.00033474 0
-0.00758423 -0.000618724 0
-0.00813332 0.000539069 0
-0.00914923 3.87248e-05 0
-0.00330529 -0.000560724 0
-0.00306019 -0.000155366 0
-0.00758423 -0.000618724 0
-0.007464 -0.000516938 0
-0.00306019 -0.000155366 0
-0.00287554 0.000259835 0
-0.007464 -0.000516938 0
-0.00708841 -2.31862e-05 0
-0.00758423 -0.000618724 0
-0.007464 -0.000516938 0
-0.00914923 3.87248e-05 0
-0.00991016 -0.000419836 0
-0.007464 -0.000516938 0
-0.00708841 -2.31862e-05 0
-0.00991016 -0.000419836 0
-0.0100025 -0.000448425 0
-0.00287554 0.000259835 0
-0.00306332 0.00180848 0
-0.00708841 -2.31862e-05 0
-0.00649218 0.00162664 0
-0.00306332 0.00180848 0
-0.0039375 0.00339009 0
-0.00649218 0.00162664 0
-0.00601723 0.00404982 0
-0.00708841 -2.31862e-05 0
-0.00649218 0.00162664 0
-0.0100025 -0.000448425 0
-0.00916753 0.000381259 0
-0.00649218 0.00162664 0
-0.00601723 0.00404982 0
-0.00916753 0.000381259 0
-0.00731816 0.00258152 0
-0.0039375 0.00339009 0
-0.00556461 0.00784769 0
-0.00601723 0.00404982 0
-0.00552988 0.00852896 0
-0.00556461 0.00784769 0
-0.00743503 0.0131789 0
-0.00552988 0.00852896 0
-0.00432137 0.0132743 0
-0.00601723 0.00404982 0
-0.00552988 0.00852896 0
-0.00731816 0.00258152 0
-0.00438912 0.00600738 0
-0.00552988 0.00852896 0
-0.00432137 0.0132743 0
-0.00438912 0.00600738 0
-0.000418996 0.00974888 0
-0.00654256 0.00856273 0
-0.00586058 0.00426183 0
0.00324774 0.00755864 0
0.00388419 0.00372642 0
-0.00586058 0.00426183 0
-0.00552521 2.32532e-05 0
0.00388419 0.00372642 0
0.00404398 -2.12465e-05 0
0.00324774 0.00755864 0
0.00388419 0.00372642 0
0.0137327 0.0063293 0
0.0145568 0.00324908 0
0.00388419 0.00372642 0
0.00404398 -2.12465e-05 0
0.0145568 0.00324908 0
0.0145572 0.000266146 0
-0.00552521 2.32532e-05 0
-0.00547649 -0.00440234 0
0.00404398 -2.12465e-05 0
0.00364464 -0.00395112 0
-0.00547649 -0.00440234 0
-0.00567589 -0.00917425 0
0.00364464 -0.00395112 0
0.00259852 -0.00817543 0
0.00404398 -2.12465e-05 0
0.00364464 -0.00395112 0
0.0145572 0.000266146 0
0.0136644 -0.00273392 0
0.00364464 -0.00395112 0
0.00259852 -0.00817543 0
0.0136644 -0.00273392 0
0.0116964 -0.00587886 0
0.1875 0 0
0.234375 0 0
0.187464 0.000117363 0
0.234354 4.88234e-05 0
0.234375 0 0
0.25 0 0
0.234354 4.88234e-05 0
0.249981 2.08961e-17 0
0.187464 0.000117363 0
0.234354 4.88234e-05 0
0.187384 0.000179003 0
0.234295 8.37231e-05 0
0.234354 4.88234e-05 0
0.249981 2.08961e-17 0
0.234295 8.37231e-05 0
0.249927 2.75198e-19 0
0.187384 0.000179003 0
0.234295 8.37231e-05 0
0.187298 0.000204817 0
0.234215 0.00010362 0
0.234295 8.37231e-05 0
0.249927 2.75198e-19 0
0.234215 0.00010362 0
0.249848 -2.49669e-17 0
0.187298 0.000204817 0
0.234215 0.00010362 0
0.187216 0.000217258 0
0.234123 0.000113302 0
0.234215 0.00010362 0
0.249848 -2.49669e-17 0
0.234123 0.000113302 0
0.249755 2.93723e-17 0
0.187216 0.000217258 0
0.234123 0.000113302 0
0.187137 0.000223414 0
0.234027 0.000119509 0
0.234123 0.000113302 0
0.249755 2.93723e-17 0
0.234027 0.000119509 0
0.249653 -1.94851e-17 0
0.187137 0.000223414 0
0.234027 0.000119509 0
0.187059 0.000229613 0
0.233927 0.000123247 0
0.234027 0.000119509 0
0.249653 -1.94851e-17 0
0.233927 0.000123247 0
0.249547 2.0412e-17 0
0.187059 0.000229613 0
0.233927 0.000123247 0
0.186982 0.000236339 0
0.233823 0.000129009 0
0.233927 0.000123247 0
0.249547 2.0412e-17 0
0.233823 0.000129009 0
0.249436 1.20587e-17 0
0.186982 0.000236339 0
0.233823 0.000129009 0
0.186904 0.000248016 0
0.233715 0.000134881 0
0.233823 0.000129009 0
0.249436 1.20587e-17 0
0.233715 0.000134881 0
0.24932 -1.69925e-17 0
0.186904 0.000248016 0
0.233715 0.000134881 0
0.18682 0.000264692 0
0.233601 0.000143612 0
0.233715 0.000134881 0
0.24932 -1.69925e-17 0
0.233601 0.000143612 0
0.249197 3.44059e-19 0
0.18682 0.000264692 0
0.233601 0.000143612 0
0.186727 0.000286727 0
0.233478 0.000153524 0
0.233601 0.000143612 0
0.249197 3.44059e-19 0
0.233478 0.000153524 0
0.249067 -9.44939e-18 0
0.186727 0.000286727 0
0.233478 0.000153524 0
0.186621 0.000309293 0
0.233347 0.000162371 0
0.233478 0.000153524 0
0.249067 -9.44939e-18 0
0.233347 0.000162371 0
0.248929 -2.41718e-18 0
0.186621 0.000309293 0
0.233347 0.000162371 0
0.186499 0.000322818 0
0.233209 0.000164596 0
0.233347 0.000162371 0
0.248929 -2.41718e-18 0
0.233209 0.000164596 0
0.248788 -5.76584e-18 0
0.186499 0.000322818 0
0.233209 0.000164596 0
0.186367 0.000311723 0
0.233073 0.000154925 0
0.233209 0.000164596 0
0.248788 -5.76584e-18 0
0.233073 0.000154925 0
0.248652 1.03463e-17 0
0.186367 0.000311723 0
0.233073 0.000154925 0
0.18624 0.000262602 0
0.232952 0.000127483 0
0.233073 0.000154925 0
0.248652 1.03463e-17 0
0.232952 0.000127483 0
0.248533 -1.2096e-17 0
0.18624 0.000262602 0
0.232952 0.000127483 0
0.186143 0.000170223 0
0.232861 8.38952e-05 0
0.232952 0.000127483 0
0.248533 -1.2096e-17 0
0.232861 8.38952e-05 0
0.248444 8.17656e-18 0
0.186143 0.000170223 0
0.232861 8.38952e-05 0
0.1861 5.15448e-05 0
0.232814 3.08788e-05 0
0.232861 8.38952e-05 0
0.248444 8.17656e-18 0
0.232814 3.08788e-05 0
0.248394 -3.23419e-17 0
0.1861 5.15448e-05 0
0.232814 3.08788e-05 0
0.186126 -6.21145e-05 0
0.232814 -1.54027e-05 0
0.232814 3.08788e-05 0
0.248394 -3.23419e-17 0
0.232814 -1.54027e-05 0
0.248383 -2.7838e-17 0
0.186126 -6.21145e-05 0
0.232814 -1.54027e-05 0
0.186211 -0.000127084 0
0.232847 -4.00202e-05 0
0.232814 -1.54027e-05 0
0.248383 -2.7838e-17 0
0.232847 -4.00202e-05 0
0.248399 -5.35213e-18 0
0.186211 -0.000127084 0
0.232847 -4.00202e-05 0
0.186321 -0.000109341 0
0.232887 -2.36976e-05 0
0.232847 -4.00202e-05 0
0.248399 -5.35213e-18 0
0.232887 -2.36976e-05 0
0.248416 1.01424e-17 0
0.186321 -0.000109341 0
0.232887 -2.36976e-05 0
0.186413 7.88653e-06 0
0.232897 3.62844e-05 0
0.232887 -2.36976e-05 0
0.248416 1.01424e-17 0
0.232897 3.62844e-05 0
0.248398 -2.30002e-17 0
0.186413 7.88653e-06 0
0.232897 3.62844e-05 0
0.18644 0.00021426 0
0.232836 0.000143807 0
0.232897 3.62844e-05 0
0.248398 -2.30002e-17 0
0.232836 0.000143807 0
0.248307 2.7698e-17 0
0.18644 0.00021426 0
0.232836 0.000143807 0
0.186367 0.000499589 0
0.232668 0.00028538 0
0.232836 0.000143807 0
0.248307 2.7698e-17 0
0.232668 0.00028538 0
0.248109 -2.32831e-17 0
0.186367 0.000499589 0
0.232668 0.00028538 0
0.186162 0.000836064 0
0.232365 0.000455393 0
0.232668 0.00028538 0
0.248109 -2.32831e-17 0
0.232365 0.000455393 0
0.247779 -1.18461e-17 0
0.186162 0.000836064 0
0.232365 0.000455393 0
0.185792 0.00120289 0
0.231912 0.000622584 0
0.232365 0.000455393 0
0.247779 -1.18461e-17 0
0.231912 0.000622584 0
0.24731 3.20915e-17 0
0.185792 0.00120289 0
0.231912 0.000622584 0
0.185232 0.00152502 0
0.231322 0.00076161 0
0.231912 0.000622584 0
0.24731 3.20915e-17 0
0.231322 0.00076161 0
0.246718 -1.98269e-17 0
0.185232 0.00152502 0
0.231322 0.00076161 0
0.184514 0.00166505 0
0.230649 0.000804971 0
0.231322 0.00076161 0
0.246718 -1.98269e-17 0
0.230649 0.000804971 0
0.246047 -2.81841e-19 0
0.25 0 0
0.234375 0 0
0.249981 2.08961e-17 0
0.234354 -4.88234e-05 0
0.234375 0 0
0.1875 0 0
0.234354 -4.88234e-05 0
0.187464 -0.000117363 0
0.249981 2.08961e-17 0
0.234354 -4.88234e-05 0
0.249927 2.75198e-19 0
0.234295 -8.37231e-05 0
0.234354 -4.88234e-05 0
0.187464 -0.000117363 0
0.234295 -8.37231e-05 0
0.187384 -0.000179003 0
0.249927 2.75198e-19 0
0.234295 -8.37231e-05 0
0.249848 -2.49669e-17 0
0.234215 -0.00010362 0
0.234295 -8.37231e-05 0
0.187384 -0.000179003 0
0.234215 -0.00010362 0
0.187298 -0.000204817 0
0.249848 -2.49669e-17 0
0.234215 -0.00010362 0
0.249755 2.93723e-17 0
0.234123 -0.000113302 0
0.234215 -0.00010362 0
0.187298 -0.000204817 0
0.234123 -0.000113302 0
0.187216 -0.000217258 0
0.249755 2.93723e-17 0
0.234123 -0.000113302 0
0.249653 -1.94851e-17 0
0.234027 -0.000119509 0
0.234123 -0.000113302 0
0.187216 -0.000217258 0
0.234027 -0.000119509 0
0.187137 -0.000223414 0
0.249653 -1.94851e-17 0
0.234027 -0.000119509 0
0.249547 2.0412e-17 0
0.233927 -0.000123247 0
0.234027 -0.000119509 0
0.187137 -0.000223414 0
0.233927 -0.000123247 0
0.187059 -0.000229613 0
0.249547 2.0412e-17 0
0.233927 -0.000123247 0
0.249436 1.20587e-17 0
0.233823 -0.000129009 0
0.233927 -0.000123247 0
0.187059 -0.000229613 0
0.233823 -0.000129009 0
0.186982 -0.000236339 0
0.249436 1.20587e-17 0
0.233823 -0.000129009 0
0.24932 -1.69925e-17 0
0.233715 -0.000134881 0
0.233823 -0.000129009 0
0.186982 -0.000236339 0
0.233715 -0.000134881 0
0.186904 -0.000248016 0
0.24932 -1.69925e-17 0
0.233715 -0.000134881 0
0.249197 3.44059e-19 0
0.233601 -0.000143612 0
0.233715 -0.000134881 0
0.186904 -0.000248016 0
0.233601 -0.000143612 0
0.18682 -0.000264692 0
0.249197 3.44059e-19 0
0.233601 -0.000143612 0
0.249067 -9.44939e-18 0
0.233478 -0.000153524 0
0.233601 -0.000143612 0
0.18682 -0.000264692 0
0.233478 -0.000153524 0
0.186727 -0.000286727 0
0.249067 -9.44939e-18 0
0.233478 -0.000153524 0
0.248929 -2.41718e-18 0
0.233347 -0.000162371 0
0.233478 -0.000153524 0
0.186727 -0.000286727 0
0.233347 -0.000162371 0
0.186621 -0.000309293 0
0.248929 -2.41718e-18 0
0.233347 -0.000162371 0
0.248788 -5.76584e-18 0
0.233209 -0.000164596 0
0.233347 -0.000162371 0
0.186621 -0.000309293 0
0.233209 -0.000164596 0
0.186499 -0.000322818 0
0.248788 -5.76584e-18 0
0.233209 -0.000164596 0
0.248652 1.03463e-17 0
0.233073 -0.000154925 0
0.233209 -0.000164596 0
0.186499 -0.000322818 0
0.233073 -0.000154925 0
0.186367 -0.000311723 0
0.248652 1.03463e-17 0
0.233073 -0.000154925 0
0.248533 -1.2096e-17 0
0.232952 -0.000127483 0
0.233073 -0.000154925 0
0.186367 -0.000311723 0
0.232952 -0.000127483 0
0.18624 -0.000262602 0
0.248533 -1.2096e-17 0
0.232952 -0.000127483 0
0.248444 8.17656e-18 0
0.232861 -8.38952e-05 0
0.232952 -0.000127483 0
0.18624 -0.000262602 0
0.232861 -8.38952e-05 0
0.186143 -0.000170223 0
0.248444 8.17656e-18 0
0.232861 -8.38952e-05 0
0.248394 -3.23419e-17 0
0.232814 -3.08788e-05 0
0.232861 -8.38952e-05 0
0.186143 -0.000170223 0
0.232814 -3.08788e-05 0
0.1861 -5.15448e-05 0
0.248394 -3.23419e-17 0
0.232814 -3.08788e-05 0
0.248383 -2.7838e-17 0
0.232814 1.54027e-05 0
0.232814 -3.08788e-05 0
0.1861 -5.15448e-05 0
0.232814 1.54027e-05 0
0.186126 6.21145e-05 0
0.248383 -2.7838e-17 0
0.232814 1.54027e-05 0
0.248399 -5.35213e-18 0
0.232847 4.00202e-05 0
0.232814 1.54027e-05 0
0.186126 6.21145e-05 0
0.232847 4.00202e-05 0
0.186211 0.000127084 0
0.248399 -5.35213e-18 0
0.232847 4.00202e-05 0
0.248416 1.01424e-17 0
0.232887 2.36976e-05 0
0.232847 4.00202e-05 0
0.186211 0.000127084 0
0.232887 2.36976e-05 0
0.186321 0.000109341 0
0.248416 1.01424e-17 0
0.232887 2.36976e-05 0
0.248398 -2.30002e-17 0
0.232897 -3.62844e-05 0
0.232887 2.36976e-05 0
0.186321 0.000109341 0
0.232897 -3.62844e-05 0
0.186413 -7.88653e-06 0
0.248398 -2.30002e-17 0
0.232897 -3.62844e-05 0
0.248307 2.7698e-17 0
0.232836 -0.000143807 0
0.232897 -3.62844e-05 0
0.186413 -7.88653e-06 0
0.232836 -0.000143807 0
0.18644 -0.00021426 0
0.248307 2.7698e-17 0
0.232836 -0.000143807 0
0.248109 -2.32831e-17 0
0.232668 -0.00028538 0
0.232836 -0.000143807 0
0.18644 -0.00021426 0
0.232668 -0.00028538 0
0.186367 -0.000499589 0
0.248109 -2.32831e-17 0
0.232668 -0.00028538 0
0.247779 -1.18461e-17 0
0.232365 -0.000455393 0
0.232668 -0.00028538 0
0.186367 -0.000499589 0
0.232365 -0.000455393 0
0.186162 -0.000836064 0
0.247779 -1.18461e-17 0
0.232365 -0.000455393 0
0.24731 3.20915e-17 0
0.231912 -0.000622584 0
0.232365 -0.000455393 0
0.186162 -0.000836064 0
0.231912 -0.000622584 0
0.185792 -0.00120289 0
0.24731 3.20915e-17 0
0.231912 -0.000622584 0
0.246718 -1.98269e-17 0
0.231322 -0.00076161 0
0.231912 -0.000622584 0
0.185792 -0.00120289 0
0.231322 -0.00076161 0
0.185232 -0.00152502 0
0.246718 -1.98269e-17 0
0.231322 -0.00076161 0
0.246047 -2.81841e-19 0
0.230649 -0.000804971 0
0.231322 -0.00076161 0
0.185232 -0.00152502 0
0.230649 -0.000804971 0
0.184514 -0.00166505 0
0 0 0
0 0 0
-0.000173025 -0.000208174 0
-0.000485216 -0.000975638 0
0 0 0
0 0 0
-0.000485216 -0.000975638 0
-0.00078495 -0.00247335 0
-0.000173025 -0.000208174 0
-0.000485216 -0.000975638 0
-0.000684728 -0.000412375 0
-0.00146016 -0.00138415 0
-0.000485216 -0.000975638 0
-0.00078495 -0.00247335 0
-0.00146016 -0.00138415 0
-0.00211008 -0.00259868 0
-0.000684728 -0.000412375 0
-0.00146016 -0.00138415 0
-0.00133265 -0.000346496 0
-0.00244059 -0.00128258 0
-0.00146016 -0.00138415 0
-0.00211008 -0.00259868 0
-0.00244059 -0.00128258 0
-0.00307897 -0.00237206 0
-0.00133265 -0.000346496 0
-0.00244059 -0.00128258 0
-0.00191613 -0.00027898 0
-0.00338603 -0.00113514 0
-0.00244059 -0.00128258 0
-0.00307897 -0.00237206 0
-0.00338603 -0.00113514 0
-0.00388834 -0.00212251 0
-0.00191613 -0.00027898 0
-0.00338603 -0.00113514 0
-0.00243876 -0.000102058 0
-0.004294 -0.000923261 0
-0.00338603 -0.00113514 0
-0.00388834 -0.00212251 0
-0.004294 -0.000923261 0
-0.00462977 -0.0018886 0
-0.00243876 -0.000102058 0
-0.004294 -0.000923261 0
-0.00290418 7.57499e-05 0
-0.00517029 -0.000676264 0
-0.004294 -0.000923261 0
-0.00462977 -0.0018886 0
-0.00517029 -0.000676264 0
-0.00537669 -0.00163135 0
-0.00290418 7.57499e-05 0
-0.00517029 -0.000676264 0
-0.00326162 0.000282847 0
-0.0059954 -0.00035202 0
-0.00517029 -0.000676264 0
-0.00537669 -0.00163135 0
-0.0059954 -0.00035202 0
-0.00619217 -0.00133517 0
-0.00326162 0.000282847 0
-0.0059954 -0.00035202 0
-0.00346058 0.000488309 0
-0.00674709 7.53001e-06 0
-0.0059954 -0.00035202 0
-0.00619217 -0.00133517 0
-0.00674709 7.53001e-06 0
-0.00710741 -0.000975078 0
-0.00346058 0.000488309 0
-0.00674709 7.53001e-06 0
-0.00348154 0.000526738 0
-0.00729791 0.00033474 0
-0.00674709 7.53001e-06 0
-0.00710741 -0.000975078 0
-0.00729791 0.00033474 0
-0.00813332 -0.000539069 0
-0.00348154 0.000526738 0
-0.00729791 0.00033474 0
-0.00330529 0.000560724 0
-0.00758423 0.000618724 0
-0.00729791 0.00033474 0
-0.00813332 -0.000539069 0
-0.00758423 0.000618724 0
-0.00914923 -3.87248e-05 0
-0.00330529 0.000560724 0
-0.00758423 0.000618724 0
-0.00306019 0.000155366 0
-0.007464 0.000516938 0
-0.00758423 0.000618724 0
-0.00914923 -3.87248e-05 0
-0.007464 0.000516938 0
-0.00991016 0.000419836 0
-0.00306019 0.000155366 0
-0.007464 0.000516938 0
-0.00287554 -0.000259835 0
-0.00708841 2.31862e-05 0
-0.007464 0.000516938 0
-0.00991016 0.000419836 0
-0.00708841 2.31862e-05 0
-0.0100025 0.000448425 0
-0.00287554 -0.000259835 0
-0.00708841 2.31862e-05 0
-0.00306332 -0.00180848 0
-0.00649218 -0.00162664 0
-0.00708841 2.31862e-05 0
-0.0100025 0.000448425 0
-0.00649218 -0.00162664 0
-0.00916753 -0.000381259 0
-0.00306332 -0.00180848 0
-0.00649218 -0.00162664 0
-0.0039375 -0.00339009 0
-0.00601723 -0.00404982 0
-0.00649218 -0.00162664 0
-0.00916753 -0.000381259 0
-0.00601723 -0.00404982 0
-0.00731816 -0.00258152 0
-0.0039375 -0.00339009 0
-0.00601723 -0.00404982 0
-0.00556461 -0.00784769 0
-0.00552988 -0.00852896 0
-0.00601723 -0.00404982 0
-0.00731816 -0.00258152 0
-0.00552988 -0.00852896 0
-0.00438912 -0.00600738 0
-0.00556461 -0.00784769 0
-0.00552988 -0.00852896 0
-0.00743503 -0.0131789 0
-0.00432137 -0.0132743 0
-0.00552988 -0.00852896 0
-0.00438912 -0.00600738 0
-0.00432137 -0.0132743 0
-0.000418996 -0.00974888 0
-0.00654256 -0.00856273 0
0.00324774 -0.00755864 0
-0.00586058 -0.00426183 0
0.00388419 -0.00372642 0
0.00324774 -0.00755864 0
0.0137327 -0.0063293 0
0.00388419 -0.00372642 0
0.0145568 -0.00324908 0
-0.00586058 -0.00426183 0
0.00388419 -0.00372642 0
-0.00552521 -2.32532e-05 0
0.00404398 2.12465e-05 0
0.00388419 -0.00372642 0
0.0145568 -0.00324908 0
0.00404398 2.12465e-05 0
0.0145572 -0.000266146 0
-0.00552521 -2.32532e-05 0
0.00404398 2.12465e-05 0
-0.00547649 0.00440234 0
0.00364464 0.00395112 0
0.00404398 2.12465e-05 0
0.0145572 -0.000266146 0
0.00364464 0.00395112 0
0.0136644 0.00273392 0
-0.00547649 0.00440234 0
0.00364464 0.00395112 0
-0.00567589 0.00917425 0
0.00259852 0.00817543 0
0.00364464 0.00395112 0
0.0136644 0.00273392 0
0.00259852 0.00817543 0
0.0116964 0.00587886 0
0 0 0
0 0 0
0.000400314 0.00024354 0
0.000134366 6.06971e-05 0
0 0 0
0 0 0