# vtk DataFile Version 3.0
#This file was generated by the deal.II library on 2026/3/26 at 15:01:41
ASCII
DATASET UNSTRUCTURED_GRID

POINTS 22272 double
0.214286 0.5 0
0.321429 0.5 0
0.214286 0.625 0
0.321429 0.625 0
0.321429 0.5 0
0.428571 0.5 0
0.321429 0.625 0
0.428571 0.625 0
0.214286 0.625 0
0.321429 0.625 0
0.214286 0.75 0
0.321429 0.75 0
0.321429 0.625 0
0.428571 0.625 0
0.321429 0.75 0
0.428571 0.75 0
0.428571 0.5 0
0.535714 0.5 0
0.428571 0.625 0
0.535714 0.625 0
0.535714 0.5 0
0.642857 0.5 0
0.535714 0.625 0
0.642857 0.625 0
0.428571 0.625 0
0.535714 0.625 0
0.428571 0.75 0
0.535714 0.75 0
0.535714 0.625 0
0.642857 0.625 0
0.535714 0.75 0
0.642857 0.75 0
2.35714 0.5 0
2.46429 0.5 0
2.35714 0.625 0
2.46429 0.625 0
2.46429 0.5 0
2.57143 0.5 0
2.46429 0.625 0
2.57143 0.625 0
2.35714 0.625 0
2.46429 0.625 0
2.35714 0.75 0
2.46429 0.75 0
2.46429 0.625 0
2.57143 0.625 0
2.46429 0.75 0
2.57143 0.75 0
0 1.75 0
0 1.625 0
0.107143 1.75 0
0.107143 1.625 0
0 1.625 0
0 1.5 0
0.107143 1.625 0
0.107143 1.5 0
0.107143 1.75 0
0.107143 1.625 0
0.214286 1.75 0
0.214286 1.625 0
0.107143 1.625 0
0.107143 1.5 0
0.214286 1.625 0
0.214286 1.5 0
0.214286 1.75 0
0.214286 1.625 0
0.321429 1.75 0
0.321429 1.625 0
0.214286 1.625 0
0.214286 1.5 0
0.321429 1.625 0
0.321429 1.5 0
0.321429 1.75 0
0.321429 1.625 0
0.428571 1.75 0
0.428571 1.625 0
0.321429 1.625 0
0.321429 1.5 0
0.428571 1.625 0
0.428571 1.5 0
0.428571 1.75 0
0.428571 1.625 0
0.535714 1.75 0
0.535714 1.625 0
0.428571 1.625 0
0.428571 1.5 0
0.535714 1.625 0
0.535714 1.5 0
0.535714 1.75 0
0.535714 1.625 0
0.642857 1.75 0
0.642857 1.625 0
0.535714 1.625 0
0.535714 1.5 0
0.642857 1.625 0
0.642857 1.5 0
0.642857 1.75 0
0.642857 1.625 0
0.75 1.75 0
0.75 1.625 0
0.642857 1.625 0
0.642857 1.5 0
0.75 1.625 0
0.75 1.5 0
0.75 1.75 0
0.75 1.625 0
0.857143 1.75 0
0.857143 1.625 0
0.75 1.625 0
0.75 1.5 0
0.857143 1.625 0
0.857143 1.5 0
0.857143 1.75 0
0.857143 1.625 0
0.964286 1.75 0
0.964286 1.625 0
0.857143 1.625 0
0.857143 1.5 0
0.964286 1.625 0
0.964286 1.5 0
0.964286 1.75 0
0.964286 1.625 0
1.07143 1.75 0
1.07143 1.625 0
0.964286 1.625 0
0.964286 1.5 0
1.07143 1.625 0
1.07143 1.5 0
1.07143 1.75 0
1.07143 1.625 0
1.17857 1.75 0
1.17857 1.625 0
1.07143 1.625 0
1.07143 1.5 0
1.17857 1.625 0
1.17857 1.5 0
1.17857 1.75 0
1.17857 1.625 0
1.28571 1.75 0
1.28571 1.625 0
1.17857 1.625 0
1.17857 1.5 0
1.28571 1.625 0
1.28571 1.5 0
1.28571 1.75 0
1.28571 1.625 0
1.39286 1.75 0
1.39286 1.625 0
1.28571 1.625 0
1.28571 1.5 0
1.39286 1.625 0
1.39286 1.5 0
1.39286 1.75 0
1.39286 1.625 0
1.5 1.75 0
1.5 1.625 0
1.39286 1.625 0
1.39286 1.5 0
1.5 1.625 0
1.5 1.5 0
1.5 1.75 0
1.5 1.625 0
1.60714 1.75 0
1.60714 1.625 0
1.5 1.625 0
1.5 1.5 0
1.60714 1.625 0
1.60714 1.5 0
1.60714 1.75 0
1.60714 1.625 0
1.71429 1.75 0
1.71429 1.625 0
1.60714 1.625 0
1.60714 1.5 0
1.71429 1.625 0
1.71429 1.5 0
1.71429 1.75 0
1.71429 1.625 0
1.82143 1.75 0
1.82143 1.625 0
1.71429 1.625 0
1.71429 1.5 0
1.82143 1.625 0
1.82143 1.5 0
1.82143 1.75 0
1.82143 1.625 0
1.92857 1.75 0
1.92857 1.625 0
1.82143 1.625 0
1.82143 1.5 0
1.92857 1.625 0
1.92857 1.5 0
1.92857 1.75 0
1.92857 1.625 0
2.03571 1.75 0
2.03571 1.625 0
1.92857 1.625 0
1.92857 1.5 0
2.03571 1.625 0
2.03571 1.5 0
2.03571 1.75 0
2.03571 1.625 0
2.14286 1.75 0
2.14286 1.625 0
2.03571 1.625 0
2.03571 1.5 0
2.14286 1.625 0
2.14286 1.5 0
2.14286 1.75 0
2.14286 1.625 0
2.25 1.75 0
2.25 1.625 0
2.14286 1.625 0
2.14286 1.5 0
2.25 1.625 0
2.25 1.5 0
2.25 1.75 0
2.25 1.625 0
2.35714 1.75 0
2.35714 1.625 0
2.25 1.625 0
2.25 1.5 0
2.35714 1.625 0
2.35714 1.5 0
2.35714 1.75 0
2.35714 1.625 0
2.46429 1.75 0
2.46429 1.625 0
2.35714 1.625 0
2.35714 1.5 0
2.46429 1.625 0
2.46429 1.5 0
2.46429 1.75 0
2.46429 1.625 0
2.57143 1.75 0
2.57143 1.625 0
2.46429 1.625 0
2.46429 1.5 0
2.57143 1.625 0
2.57143 1.5 0
0 1.5 0
0 1.375 0
0.107143 1.5 0
0.107143 1.375 0
0 1.375 0
0 1.25 0
0.107143 1.375 0
0.107143 1.25 0
0.107143 1.5 0
0.107143 1.375 0
0.214286 1.5 0
0.214286 1.375 0
0.107143 1.375 0
0.107143 1.25 0
0.214286 1.375 0
0.214286 1.25 0
0.214286 1.5 0
0.214286 1.375 0
0.321429 1.5 0
0.321429 1.375 0
0.214286 1.375 0
0.214286 1.25 0
0.321429 1.375 0
0.321429 1.25 0
0.321429 1.5 0
0.321429 1.375 0
0.428571 1.5 0
0.428571 1.375 0
0.321429 1.375 0
0.321429 1.25 0
0.428571 1.375 0
0.428571 1.25 0
0.428571 1.5 0
0.428571 1.375 0
0.535714 1.5 0
0.535714 1.375 0
0.428571 1.375 0
0.428571 1.25 0
0.535714 1.375 0
0.535714 1.25 0
0.535714 1.5 0
0.535714 1.375 0
0.642857 1.5 0
0.642857 1.375 0
0.535714 1.375 0
0.535714 1.25 0
0.642857 1.375 0
0.642857 1.25 0
0.642857 1.5 0
0.642857 1.375 0
0.75 1.5 0
0.75 1.375 0
0.642857 1.375 0
0.642857 1.25 0
0.75 1.375 0
0.75 1.25 0
0.75 1.5 0
0.75 1.375 0
0.857143 1.5 0
0.857143 1.375 0
0.75 1.375 0
0.75 1.25 0
0.857143 1.375 0
0.857143 1.25 0
0.857143 1.5 0
0.857143 1.375 0
0.964286 1.5 0
0.964286 1.375 0
0.857143 1.375 0
0.857143 1.25 0
0.964286 1.375 0
0.964286 1.25 0
0.964286 1.5 0
0.964286 1.375 0
1.07143 1.5 0
1.07143 1.375 0
0.964286 1.375 0
0.964286 1.25 0
1.07143 1.375 0
1.07143 1.25 0
1.07143 1.5 0
1.07143 1.375 0
1.17857 1.5 0
1.17857 1.375 0
1.07143 1.375 0
1.07143 1.25 0
1.17857 1.375 0
1.17857 1.25 0
1.17857 1.5 0
1.17857 1.375 0
1.28571 1.5 0
1.28571 1.375 0
1.17857 1.375 0
1.17857 1.25 0
1.28571 1.375 0
1.28571 1.25 0
1.28571 1.5 0
1.28571 1.375 0
1.39286 1.5 0
1.39286 1.375 0
1.28571 1.375 0
1.28571 1.25 0
1.39286 1.375 0
1.39286 1.25 0
1.39286 1.5 0
1.39286 1.375 0
1.5 1.5 0
1.5 1.375 0
1.39286 1.375 0
1.39286 1.25 0
1.5 1.375 0
1.5 1.25 0
1.5 1.5 0
1.5 1.375 0
1.60714 1.5 0
1.60714 1.375 0
1.5 1.375 0
1.5 1.25 0
1.60714 1.375 0
1.60714 1.25 0
1.60714 1.5 0
1.60714 1.375 0
1.71429 1.5 0
1.71429 1.375 0
1.60714 1.375 0
1.60714 1.25 0
1.71429 1.375 0
1.71429 1.25 0
1.71429 1.5 0
1.71429 1.375 0
1.82143 1.5 0
1.82143 1.375 0
1.71429 1.375 0
1.71429 1.25 0
1.82143 1.375 0
1.82143 1.25 0
1.82143 1.5 0
1.82143 1.375 0
1.92857 1.5 0
1.92857 1.375 0
1.82143 1.375 0
1.82143 1.25 0
1.92857 1.375 0
1.92857 1.25 0
1.92857 1.5 0
1.92857 1.375 0
2.03571 1.5 0
2.03571 1.375 0
1.92857 1.375 0
1.92857 1.25 0
2.03571 1.375 0
2.03571 1.25 0
2.03571 1.5 0
2.03571 1.375 0
2.14286 1.5 0
2.14286 1.375 0
2.03571 1.375 0
2.03571 1.25 0
2.14286 1.375 0
2.14286 1.25 0
2.14286 1.5 0
2.14286 1.375 0
2.25 1.5 0
2.25 1.375 0
2.14286 1.375 0
2.14286 1.25 0
2.25 1.375 0
2.25 1.25 0
2.25 1.5 0
2.25 1.375 0
2.35714 1.5 0
2.35714 1.375 0
2.25 1.375 0
2.25 1.25 0
2.35714 1.375 0
2.35714 1.25 0
2.35714 1.5 0
2.35714 1.375 0
2.46429 1.5 0
2.46429 1.375 0
2.35714 1.375 0
2.35714 1.25 0
2.46429 1.375 0
2.46429 1.25 0
2.46429 1.5 0
2.46429 1.375 0
2.57143 1.5 0
2.57143 1.375 0
2.46429 1.375 0
2.46429 1.25 0
2.57143 1.375 0
2.57143 1.25 0
0.214286 2.5 0
0.214286 2.375 0
0.321429 2.5 0
0.321429 2.375 0
0.214286 2.375 0
0.214286 2.25 0
0.321429 2.375 0
0.321429 2.25 0
0.321429 2.5 0
0.321429 2.375 0
0.428571 2.5 0
0.428571 2.375 0
0.321429 2.375 0
0.321429 2.25 0
0.428571 2.375 0
0.428571 2.25 0
0.428571 2.5 0
0.428571 2.375 0
0.535714 2.5 0
0.535714 2.375 0
0.428571 2.375 0
0.428571 2.25 0
0.535714 2.375 0
0.535714 2.25 0
0.535714 2.5 0
0.535714 2.375 0
0.642857 2.5 0
0.642857 2.375 0
0.535714 2.375 0
0.535714 2.25 0
0.642857 2.375 0
0.642857 2.25 0
2.35714 2.5 0
2.35714 2.375 0
2.46429 2.5 0
2.46429 2.375 0
2.35714 2.375 0
2.35714 2.25 0
2.46429 2.375 0
2.46429 2.25 0
2.46429 2.5 0
2.46429 2.375 0
2.57143 2.5 0
2.57143 2.375 0
2.46429 2.375 0
2.46429 2.25 0
2.57143 2.375 0
2.57143 2.25 0
0 0 0
0.107143 0 0
0 0.125 0
0.107143 0.125 0
0.107143 0 0
0.214286 0 0
0.107143 0.125 0
0.214286 0.125 0
0 0.125 0
0.107143 0.125 0
0 0.25 0
0.107143 0.25 0
0.107143 0.125 0
0.214286 0.125 0
0.107143 0.25 0
0.214286 0.25 0
0 0.25 0
0.107143 0.25 0
0 0.375 0
0.107143 0.375 0
0.107143 0.25 0
0.214286 0.25 0
0.107143 0.375 0
0.214286 0.375 0
0 0.375 0
0.107143 0.375 0
0 0.5 0
0.107143 0.5 0
0.107143 0.375 0
0.214286 0.375 0
0.107143 0.5 0
0.214286 0.5 0
0.214286 0 0
0.321429 0 0
0.214286 0.125 0
0.321429 0.125 0
0.321429 0 0
0.428571 0 0
0.321429 0.125 0
0.428571 0.125 0
0.214286 0.125 0
0.321429 0.125 0
0.214286 0.25 0
0.321429 0.25 0
0.321429 0.125 0
0.428571 0.125 0
0.321429 0.25 0
0.428571 0.25 0
0.214286 0.25 0
0.321429 0.25 0
0.214286 0.375 0
0.321429 0.375 0
0.321429 0.25 0
0.428571 0.25 0
0.321429 0.375 0
0.428571 0.375 0
0.214286 0.375 0
0.321429 0.375 0
0.214286 0.5 0
0.321429 0.5 0
0.321429 0.375 0
0.428571 0.375 0
0.321429 0.5 0
0.428571 0.5 0
0.428571 0 0
0.535714 0 0
0.428571 0.125 0
0.535714 0.125 0
0.535714 0 0
0.642857 0 0
0.535714 0.125 0
0.642857 0.125 0
0.428571 0.125 0
0.535714 0.125 0
0.428571 0.25 0
0.535714 0.25 0
0.535714 0.125 0
0.642857 0.125 0
0.535714 0.25 0
0.642857 0.25 0
0.428571 0.25 0
0.535714 0.25 0
0.428571 0.375 0
0.535714 0.375 0
0.535714 0.25 0
0.642857 0.25 0
0.535714 0.375 0
0.642857 0.375 0
0.428571 0.375 0
0.535714 0.375 0
0.428571 0.5 0
0.535714 0.5 0
0.535714 0.375 0
0.642857 0.375 0
0.535714 0.5 0
0.642857 0.5 0
0.642857 0 0
0.75 0 0
0.642857 0.125 0
0.75 0.125 0
0.75 0 0
0.857143 0 0
0.75 0.125 0
0.857143 0.125 0
0.642857 0.125 0
0.75 0.125 0
0.642857 0.25 0
0.75 0.25 0
0.75 0.125 0
0.857143 0.125 0
0.75 0.25 0
0.857143 0.25 0
0.642857 0.25 0
0.75 0.25 0
0.642857 0.375 0
0.75 0.375 0
0.75 0.25 0
0.857143 0.25 0
0.75 0.375 0
0.857143 0.375 0
0.642857 0.375 0
0.75 0.375 0
0.642857 0.5 0
0.75 0.5 0
0.75 0.375 0
0.857143 0.375 0
0.75 0.5 0
0.857143 0.5 0
0.857143 0 0
0.964286 0 0
0.857143 0.125 0
0.964286 0.125 0
0.964286 0 0
1.07143 0 0
0.964286 0.125 0
1.07143 0.125 0
0.857143 0.125 0
0.964286 0.125 0
0.857143 0.25 0
0.964286 0.25 0
0.964286 0.125 0
1.07143 0.125 0
0.964286 0.25 0
1.07143 0.25 0
0.857143 0.25 0
0.964286 0.25 0
0.857143 0.375 0
0.964286 0.375 0
0.964286 0.25 0
1.07143 0.25 0
0.964286 0.375 0
1.07143 0.375 0
0.857143 0.375 0
0.964286 0.375 0
0.857143 0.5 0
0.964286 0.5 0
0.964286 0.375 0
1.07143 0.375 0
0.964286 0.5 0
1.07143 0.5 0
1.07143 0 0
1.17857 0 0
1.07143 0.125 0
1.17857 0.125 0
1.17857 0 0
1.28571 0 0
1.17857 0.125 0
[...]
POINT_DATA 22272
VECTORS velocity double
-0.000793877 3.9388e-05 0
-0.00142194 8.853e-05 0
-0.0015661 0.00104601 0
-0.00264421 0.00107332 0
-0.00142194 8.853e-05 0
-0.00203855 6.84592e-05 0
-0.00264421 0.00107332 0
-0.00366144 0.000991371 0
-0.0015661 0.00104601 0
-0.00264421 0.00107332 0
-0.00222579 0.00241717 0
-0.00331759 0.00224276 0
-0.00264421 0.00107332 0
-0.00366144 0.000991371 0
-0.00331759 0.00224276 0
-0.00419629 0.00204249 0
-0.00203855 6.84592e-05 0
-0.00260319 -1.54131e-05 0
-0.00366144 0.000991371 0
-0.00462472 0.000845531 0
-0.00260319 -1.54131e-05 0
-0.00308172 -0.000141525 0
-0.00462472 0.000845531 0
-0.00554617 0.000631352 0
-0.00366144 0.000991371 0
-0.00462472 0.000845531 0
-0.00419629 0.00204249 0
-0.00499102 0.00185351 0
-0.00462472 0.000845531 0
-0.00554617 0.000631352 0
-0.00499102 0.00185351 0
-0.00580804 0.0016588 0
-0.00562918 0.000559835 0
-0.00554883 -0.00400591 0
0.00379675 0.000438027 0
0.00344722 -0.00357132 0
-0.00554883 -0.00400591 0
-0.00578832 -0.00891098 0
0.00344722 -0.00357132 0
0.002434 -0.0078858 0
0.00379675 0.000438027 0
0.00344722 -0.00357132 0
0.014145 0.000622657 0
0.01337 -0.00244555 0
0.00344722 -0.00357132 0
0.002434 -0.0078858 0
0.01337 -0.00244555 0
0.0115087 -0.00565911 0
0.1875 0 0
0.234375 0 0
0.187464 0.000117339 0
0.234354 4.85577e-05 0
0.234375 0 0
0.25 0 0
0.234354 4.85577e-05 0
0.249981 5.45668e-17 0
0.187464 0.000117339 0
0.234354 4.85577e-05 0
0.187383 0.00017776 0
0.234296 8.31955e-05 0
0.234354 4.85577e-05 0
0.249981 5.45668e-17 0
0.234296 8.31955e-05 0
0.249927 -2.39582e-17 0
0.187383 0.00017776 0
0.234296 8.31955e-05 0
0.187298 0.000202971 0
0.234216 0.00010255 0
0.234296 8.31955e-05 0
0.249927 -2.39582e-17 0
0.234216 0.00010255 0
0.249849 -3.6941e-17 0
0.187298 0.000202971 0
0.234216 0.00010255 0
0.187217 0.000214649 0
0.234126 0.0001121 0
0.234216 0.00010255 0
0.249849 -3.6941e-17 0
0.234126 0.0001121 0
0.249757 -1.09175e-18 0
0.187217 0.000214649 0
0.234126 0.0001121 0
0.187139 0.00022049 0
0.23403 0.000117729 0
0.234126 0.0001121 0
0.249757 -1.09175e-18 0
0.23403 0.000117729 0
0.249657 -4.90414e-17 0
0.187139 0.00022049 0
0.23403 0.000117729 0
0.187063 0.000225761 0
0.233932 0.0001215 0
0.23403 0.000117729 0
0.249657 -4.90414e-17 0
0.233932 0.0001215 0
0.249552 5.09904e-17 0
0.187063 0.000225761 0
0.233932 0.0001215 0
0.186987 0.000232021 0
0.23383 0.000126533 0
0.233932 0.0001215 0
0.249552 5.09904e-17 0
0.23383 0.000126533 0
0.249442 -5.12626e-17 0
0.186987 0.000232021 0
0.23383 0.000126533 0
0.18691 0.000243448 0
0.233724 0.000132616 0
0.23383 0.000126533 0
0.249442 -5.12626e-17 0
0.233724 0.000132616 0
0.249328 4.26201e-17 0
0.18691 0.000243448 0
0.233724 0.000132616 0
0.18683 0.000260523 0
0.233611 0.000142607 0
0.233724 0.000132616 0
0.249328 4.26201e-17 0
0.233611 0.000142607 0
0.249207 -4.40085e-17 0
0.18683 0.000260523 0
0.233611 0.000142607 0
0.186741 0.000285186 0
0.233489 0.000153499 0
0.233611 0.000142607 0
0.249207 -4.40085e-17 0
0.233489 0.000153499 0
0.249077 7.04943e-17 0
0.186741 0.000285186 0
0.233489 0.000153499 0
0.186636 0.000312438 0
0.233357 0.000164925 0
0.233489 0.000153499 0
0.249077 7.04943e-17 0
0.233357 0.000164925 0
0.248938 -4.50834e-17 0
0.186636 0.000312438 0
0.233357 0.000164925 0
0.186513 0.000333694 0
0.233216 0.000171036 0
0.233357 0.000164925 0
0.248938 -4.50834e-17 0
0.233216 0.000171036 0
0.248793 6.99545e-17 0
0.186513 0.000333694 0
0.233216 0.000171036 0
0.186376 0.000332802 0
0.233073 0.000165971 0
0.233216 0.000171036 0
0.248793 6.99545e-17 0
0.233073 0.000165971 0
0.248649 -3.16393e-17 0
0.186376 0.000332802 0
0.233073 0.000165971 0
0.186239 0.000293721 0
0.232941 0.000142833 0
0.233073 0.000165971 0
0.248649 -3.16393e-17 0
0.232941 0.000142833 0
0.248519 -1.2316e-17 0
0.186239 0.000293721 0
0.232941 0.000142833 0
0.186125 0.000207489 0
0.232836 0.000101533 0
0.232941 0.000142833 0
0.248519 -1.2316e-17 0
0.232836 0.000101533 0
0.248415 -4.17129e-17 0
0.186125 0.000207489 0
0.232836 0.000101533 0
0.186065 8.75174e-05 0
0.232773 4.78553e-05 0
0.232836 0.000101533 0
0.248415 -4.17129e-17 0
0.232773 4.78553e-05 0
0.248351 3.0053e-17 0
0.186065 8.75174e-05 0
0.232773 4.78553e-05 0
0.186075 -3.47995e-05 0
0.232759 -2.33895e-06 0
0.232773 4.78553e-05 0
0.248351 3.0053e-17 0
0.232759 -2.33895e-06 0
0.248328 -8.54347e-18 0
0.186075 -3.47995e-05 0
0.232759 -2.33895e-06 0
0.186151 -0.000111848 0
0.232784 -3.17245e-05 0
0.232759 -2.33895e-06 0
0.248328 -8.54347e-18 0
0.232784 -3.17245e-05 0
0.248334 -1.24264e-17 0
0.186151 -0.000111848 0
0.232784 -3.17245e-05 0
0.186259 -0.000106639 0
0.23282 -2.12159e-05 0
0.232784 -3.17245e-05 0
0.248334 -1.24264e-17 0
0.23282 -2.12159e-05 0
0.248346 -4.02185e-18 0
0.186259 -0.000106639 0
0.23282 -2.12159e-05 0
0.186355 1.16699e-06 0
0.232829 3.53914e-05 0
0.23282 -2.12159e-05 0
0.248346 -4.02185e-18 0
0.232829 3.53914e-05 0
0.248326 9.07307e-18 0
0.186355 1.16699e-06 0
0.232829 3.53914e-05 0
0.186392 0.000205606 0
0.232771 0.000142085 0
0.232829 3.53914e-05 0
0.248326 9.07307e-18 0
0.232771 0.000142085 0
0.248235 -2.65459e-17 0
0.186392 0.000205606 0
0.232771 0.000142085 0
0.186329 0.000496485 0
0.232604 0.000288501 0
0.232771 0.000142085 0
0.248235 -2.65459e-17 0
0.232604 0.000288501 0
0.248035 -5.88651e-17 0
0.186329 0.000496485 0
0.232604 0.000288501 0
0.186132 0.000850702 0
0.232296 0.00046858 0
0.232604 0.000288501 0
0.248035 -5.88651e-17 0
0.232296 0.00046858 0
0.247696 1.13761e-17 0
0.186132 0.000850702 0
0.232296 0.00046858 0
0.185768 0.00124707 0
0.231828 0.000654918 0
0.232296 0.00046858 0
0.247696 1.13761e-17 0
0.231828 0.000654918 0
0.247203 -9.11873e-17 0
0.25 0 0
0.234375 0 0
0.249981 5.45668e-17 0
0.234354 -4.85577e-05 0
0.234375 0 0
0.1875 0 0
0.234354 -4.85577e-05 0
0.187464 -0.000117339 0
0.249981 5.45668e-17 0
0.234354 -4.85577e-05 0
0.249927 -2.39582e-17 0
0.234296 -8.31955e-05 0
0.234354 -4.85577e-05 0
0.187464 -0.000117339 0
0.234296 -8.31955e-05 0
0.187383 -0.00017776 0
0.249927 -2.39582e-17 0
0.234296 -8.31955e-05 0
0.249849 -3.6941e-17 0
0.234216 -0.00010255 0
0.234296 -8.31955e-05 0
0.187383 -0.00017776 0
0.234216 -0.00010255 0
0.187298 -0.000202971 0
0.249849 -3.6941e-17 0
0.234216 -0.00010255 0
0.249757 -1.09175e-18 0
0.234126 -0.0001121 0
0.234216 -0.00010255 0
0.187298 -0.000202971 0
0.234126 -0.0001121 0
0.187217 -0.000214649 0
0.249757 -1.09175e-18 0
0.234126 -0.0001121 0
0.249657 -4.90414e-17 0
0.23403 -0.000117729 0
0.234126 -0.0001121 0
0.187217 -0.000214649 0
0.23403 -0.000117729 0
0.187139 -0.00022049 0
0.249657 -4.90414e-17 0
0.23403 -0.000117729 0
0.249552 5.09904e-17 0
0.233932 -0.0001215 0
0.23403 -0.000117729 0
0.187139 -0.00022049 0
0.233932 -0.0001215 0
0.187063 -0.000225761 0
0.249552 5.09904e-17 0
0.233932 -0.0001215 0
0.249442 -5.12626e-17 0
0.23383 -0.000126533 0
0.233932 -0.0001215 0
0.187063 -0.000225761 0
0.23383 -0.000126533 0
0.186987 -0.000232021 0
0.249442 -5.12626e-17 0
0.23383 -0.000126533 0
0.249328 4.26201e-17 0
0.233724 -0.000132616 0
0.23383 -0.000126533 0
0.186987 -0.000232021 0
0.233724 -0.000132616 0
0.18691 -0.000243448 0
0.249328 4.26201e-17 0
0.233724 -0.000132616 0
0.249207 -4.40085e-17 0
0.233611 -0.000142607 0
0.233724 -0.000132616 0
0.18691 -0.000243448 0
0.233611 -0.000142607 0
0.18683 -0.000260523 0
0.249207 -4.40085e-17 0
0.233611 -0.000142607 0
0.249077 7.04943e-17 0
0.233489 -0.000153499 0
0.233611 -0.000142607 0
0.18683 -0.000260523 0
0.233489 -0.000153499 0
0.186741 -0.000285186 0
0.249077 7.04943e-17 0
0.233489 -0.000153499 0
0.248938 -4.50834e-17 0
0.233357 -0.000164925 0
0.233489 -0.000153499 0
0.186741 -0.000285186 0
0.233357 -0.000164925 0
0.186636 -0.000312438 0
0.248938 -4.50834e-17 0
0.233357 -0.000164925 0
0.248793 6.99545e-17 0
0.233216 -0.000171036 0
0.233357 -0.000164925 0
0.186636 -0.000312438 0
0.233216 -0.000171036 0
0.186513 -0.000333694 0
0.248793 6.99545e-17 0
0.233216 -0.000171036 0
0.248649 -3.16393e-17 0
0.233073 -0.000165971 0
0.233216 -0.000171036 0
0.186513 -0.000333694 0
0.233073 -0.000165971 0
0.186376 -0.000332802 0
0.248649 -3.16393e-17 0
0.233073 -0.000165971 0
0.248519 -1.2316e-17 0
0.232941 -0.000142833 0
0.233073 -0.000165971 0
0.186376 -0.000332802 0
0.232941 -0.000142833 0
0.186239 -0.000293721 0
0.248519 -1.2316e-17 0
0.232941 -0.000142833 0
0.248415 -4.17129e-17 0
0.232836 -0.000101533 0
0.232941 -0.000142833 0
0.186239 -0.000293721 0
0.232836 -0.000101533 0
0.186125 -0.000207489 0
0.248415 -4.17129e-17 0
0.232836 -0.000101533 0
0.248351 3.0053e-17 0
0.232773 -4.78553e-05 0
0.232836 -0.000101533 0
0.186125 -0.000207489 0
0.232773 -4.78553e-05 0
0.186065 -8.75174e-05 0
0.248351 3.0053e-17 0
0.232773 -4.78553e-05 0
0.248328 -8.54347e-18 0
0.232759 2.33895e-06 0
0.232773 -4.78553e-05 0
0.186065 -8.75174e-05 0
0.232759 2.33895e-06 0
0.186075 3.47995e-05 0
0.248328 -8.54347e-18 0
0.232759 2.33895e-06 0
0.248334 -1.24264e-17 0
0.232784 3.17245e-05 0
0.232759 2.33895e-06 0
0.186075 3.47995e-05 0
0.232784 3.17245e-05 0
0.186151 0.000111848 0
0.248334 -1.24264e-17 0
0.232784 3.17245e-05 0
0.248346 -4.02185e-18 0
0.23282 2.12159e-05 0
0.232784 3.17245e-05 0
0.186151 0.000111848 0
0.23282 2.12159e-05 0
0.186259 0.000106639 0
0.248346 -4.02185e-18 0
0.23282 2.12159e-05 0
0.248326 9.07307e-18 0
0.232829 -3.53914e-05 0
0.23282 2.12159e-05 0
0.186259 0.000106639 0
0.232829 -3.53914e-05 0
0.186355 -1.16699e-06 0
0.248326 9.07307e-18 0
0.232829 -3.53914e-05 0
0.248235 -2.65459e-17 0
0.232771 -0.000142085 0
0.232829 -3.53914e-05 0
0.186355 -1.16699e-06 0
0.232771 -0.000142085 0
0.186392 -0.000205606 0
0.248235 -2.65459e-17 0
0.232771 -0.000142085 0
0.248035 -5.88651e-17 0
0.232604 -0.000288501 0
0.232771 -0.000142085 0
0.186392 -0.000205606 0
0.232604 -0.000288501 0
0.186329 -0.000496485 0
0.248035 -5.88651e-17 0
0.232604 -0.000288501 0
0.247696 1.13761e-17 0
0.232296 -0.00046858 0
0.232604 -0.000288501 0
0.186329 -0.000496485 0
0.232296 -0.00046858 0
0.186132 -0.000850702 0
0.247696 1.13761e-17 0
0.232296 -0.00046858 0
0.247203 -9.11873e-17 0
0.231828 -0.000654918 0
0.232296 -0.00046858 0
0.186132 -0.000850702 0
0.231828 -0.000654918 0
0.185768 -0.00124707 0
-0.000793877 -3.9388e-05 0
-0.0015661 -0.00104601 0
-0.00142194 -8.853e-05 0
-0.00264421 -0.00107332 0
-0.0015661 -0.00104601 0
-0.00222579 -0.00241717 0
-0.00264421 -0.00107332 0
-0.00331759 -0.00224276 0
-0.00142194 -8.853e-05 0
-0.00264421 -0.00107332 0
-0.00203855 -6.84592e-05 0
-0.00366144 -0.000991371 0
-0.00264421 -0.00107332 0
-0.00331759 -0.00224276 0
-0.00366144 -0.000991371 0
-0.00419629 -0.00204249 0
-0.00203855 -6.84592e-05 0
-0.00366144 -0.000991371 0
-0.00260319 1.54131e-05 0
-0.00462472 -0.000845531 0
-0.00366144 -0.000991371 0
-0.00419629 -0.00204249 0
-0.00462472 -0.000845531 0
-0.00499102 -0.00185351 0
-0.00260319 1.54131e-05 0
-0.00462472 -0.000845531 0
-0.00308172 0.000141525 0
-0.00554617 -0.000631352 0
-0.00462472 -0.000845531 0
-0.00499102 -0.00185351 0
-0.00554617 -0.000631352 0
-0.00580804 -0.0016588 0
-0.00562918 -0.000559835 0
0.00379675 -0.000438027 0
-0.00554883 0.00400591 0
0.00344722 0.00357132 0
0.00379675 -0.000438027 0
0.014145 -0.000622657 0
0.00344722 0.00357132 0
0.01337 0.00244555 0
-0.00554883 0.00400591 0
0.00344722 0.00357132 0
-0.00578832 0.00891098 0
0.002434 0.0078858 0
0.00344722 0.00357132 0
0.01337 0.00244555 0
0.002434 0.0078858 0
0.0115087 0.00565911 0
0 0 0
0 0 0
0 0 0
8.12387e-05 -0.000107022 0
0 0 0
0 0 0
8.12387e-05 -0.000107022 0
0.000283076 -0.000145771 0
0 0 0
8.12387e-05 -0.000107022 0
0 0 0
7.83495e-05 -0.000303185 0
8.12387e-05 -0.000107022 0
0.000283076 -0.000145771 0
7.83495e-05 -0.000303185 0
0.000242115 -0.000385199 0
0 0 0
7.83495e-05 -0.000303185 0
0 0 0
-2.95867e-05 -0.000368664 0
7.83495e-05 -0.000303185 0
0.000242115 -0.000385199 0
-2.95867e-05 -0.000368664 0
-0.000129172 -0.000403203 0
0 0 0
-2.95867e-05 -0.000368664 0
0 0 0
-0.000242608 -5.94588e-05 0
-2.95867e-05 -0.000368664 0
-0.000129172 -0.000403203 0
-0.000242608 -5.94588e-05 0
-0.000793877 3.9388e-05 0
0 0 0
0 0 0
0.000283076 -0.000145771 0
0.000518071 -0.00014553 0
0 0 0
0 0 0
0.000518071 -0.00014553 0
0.000745464 -0.00013634 0
0.000283076 -0.000145771 0
0.000518071 -0.00014553 0
0.000242115 -0.000385199 0
0.000402967 -0.000377149 0
0.000518071 -0.00014553 0
0.000745464 -0.00013634 0
0.000402967 -0.000377149 0
0.000556134 -0.000357256 0
0.000242115 -0.000385199 0
0.000402967 -0.000377149 0
-0.000129172 -0.000403203 0
-0.00028371 -0.000374697 0
0.000402967 -0.000377149 0
0.000556134 -0.000357256 0
-0.00028371 -0.000374697 0
-0.000440083 -0.000363494 0
-0.000129172 -0.000403203 0
-0.00028371 -0.000374697 0
-0.000793877 3.9388e-05 0
-0.00142194 8.853e-05 0
-0.00028371 -0.000374697 0
-0.000440083 -0.000363494 0
-0.00142194 8.853e-05 0
-0.00203855 6.84592e-05 0
0 0 0
0 0 0
0.000745464 -0.00013634 0
0.000959429 -0.000129097 0
0 0 0
0 0 0
0.000959429 -0.000129097 0
0.00116214 -0.000122126 0
0.000745464 -0.00013634 0
0.000959429 -0.000129097 0
0.000556134 -0.000357256 0
0.000711634 -0.000347006 0
0.000959429 -0.000129097 0
0.00116214 -0.000122126 0
0.000711634 -0.000347006 0
0.000878354 -0.00034194 0
0.000556134 -0.000357256 0
0.000711634 -0.000347006 0
-0.000440083 -0.000363494 0
-0.00056575 -0.000382444 0
0.000711634 -0.000347006 0
0.000878354 -0.00034194 0
-0.00056575 -0.000382444 0
-0.000642979 -0.000416936 0
-0.000440083 -0.000363494 0
-0.00056575 -0.000382444 0
-0.00203855 6.84592e-05 0
-0.00260319 -1.54131e-05 0
-0.00056575 -0.000382444 0
-0.000642979 -0.000416936 0
-0.00260319 -1.54131e-05 0
-0.00308172 -0.000141525 0
0 0 0
0 0 0
0.00116214 -0.000122126 0
0.00134973 -0.000110024 0
0 0 0
0 0 0
0.00134973 -0.000110024 0
0.0015087 -8.71715e-05 0
0.00116214 -0.000122126 0
0.00134973 -0.000110024 0
0.000878354 -0.00034194 0
0.00105848 -0.000324464 0
0.00134973 -0.000110024 0
0.0015087 -8.71715e-05 0
0.00105848 -0.000324464 0
0.00124315 -0.000277325 0
0.000878354 -0.00034194 0
0.00105848 -0.000324464 0
-0.000642979 -0.000416936 0
-0.000653419 -0.00045223 0
0.00105848 -0.000324464 0
0.00124315 -0.000277325 0
-0.000653419 -0.00045223 0
-0.000581768 -0.000452073 0
-0.000642979 -0.000416936 0
-0.000653419 -0.00045223 0
-0.00308172 -0.000141525 0
-0.00345353 -0.000287144 0
-0.000653419 -0.00045223 0
-0.000581768 -0.000452073 0
-0.00345353 -0.000287144 0
-0.003684 -0.00043665 0
0 0 0
0 0 0
0.0015087 -8.71715e-05 0
0.00161935 -5.20189e-05 0
0 0 0
0 0 0
0.00161935 -5.20189e-05 0
0.00166336 -7.9096e-06 0
0.0015087 -8.71715e-05 0
0.00161935 -5.20189e-05 0
0.00124315 -0.000277325 0
0.00141221 -0.000190137 0
0.00161935 -5.20189e-05 0
0.00166336 -7.9096e-06 0
0.00141221 -0.000190137 0
0.00153657 -6.65365e-05 0
0.00124315 -0.000277325 0
0.00141221 -0.000190137 0
-0.000581768 -0.000452073 0
-0.00043352 -0.000387506 0
0.00141221 -0.000190137 0
0.00153657 -6.65365e-05 0
-0.00043352 -0.000387506 0
-0.000237235 -0.000243634 0
-0.000581768 -0.000452073 0
-0.00043352 -0.000387506 0
-0.003684 -0.00043665 0
-0.00372625 -0.000530421 0
-0.00043352 -0.000387506 0
-0.000237235 -0.000243634 0
-0.00372625 -0.000530421 0
-0.00357245 -0.000511842 0
0 0 0
0 0 0
0.00166336 -7.9096e-06 0
0.00163247 3.69495e-05 0
0 0 0
0 0 0
0.00163247 3.69495e-05 0
0.00153522 7.10039e-05 0
0.00166336 -7.9096e-06 0
0.00163247 3.69495e-05 0
0.00153657 -6.65365e-05 0
0.0015845 7.72749e-05 0
0.00163247 3.69495e-05 0
0.00153522 7.10039e-05 0
0.0015845 7.72749e-05 0
0.00152196 0.000220579 0
0.00153657 -6.65365e-05 0
0.0015845 7.72749e-05 0
-0.000237235 -0.000243634 0
-5.06501e-05 -1.7768e-05 0
0.0015845 7.72749e-05 0
0.00152196 0.000220579 0
-5.06501e-05 -1.7768e-05 0
3.21374e-05 0.000295359 0
-0.000237235 -0.000243634 0
-5.06501e-05 -1.7768e-05 0
-0.00357245 -0.000511842 0
-0.00327894 -0.000310648 0
-5.06501e-05 -1.7768e-05 0
3.21374e-05 0.000295359 0
-0.00327894 -0.000310648 0
-0.00299169 0.000157431 0
0 0 0
0 0 0
0.00153522 7.10039e-05 0
0.00139786 8.58789e-05 0
0 0 0
0 0 0
0.00139786 8.58789e-05 0
0.00124602 8.95311e-05 0
0.00153522 7.10039e-05 0
0.00139786 8.58789e-05 0
0.00152196 0.000220579 0
0.00130197 0.000358982 0
0.00139786 8.58789e-05 0
0.00124602 8.95311e-05 0
0.00130197 0.000358982 0
0.000794135 0.000596336 0
0.00152196 0.000220579 0
0.00130197 0.000358982 0
3.21374e-05 0.000295359 0
-0.00015272 0.000762282 0
0.00130197 0.000358982 0
0.000794135 0.000596336 0
-0.00015272 0.000762282 0
-0.000911552 0.00168004 0
3.21374e-05 0.000295359 0
-0.00015272 0.000762282 0
-0.00299169 0.000157431 0
-0.00294901 0.00106922 0
-0.00015272 0.000762282 0
-0.000911552 0.00168004 0
-0.00294901 0.00106922 0
-0.00348527 0.0028901 0
0 0 0
0 0 0
0 0 0
8.12387e-05 0.000107022 0
0 0 0
0 0 0
8.12387e-05 0.000107022 0
7.83495e-05 0.000303185 0
0 0 0
8.12387e-05 0.000107022 0
0 0 0
0.000283076 0.000145771 0
8.12387e-05 0.000107022 0
7.83495e-05 0.000303185 0
0.000283076 0.000145771 0
0.000242115 0.000385199 0
0 0 0
0.000283076 0.000145771 0
0 0 0
0.000518071 0.00014553 0
0.000283076 0.000145771 0
0.000242115 0.000385199 0
0.000518071 0.00014553 0
0.000402967 0.000377149 0
0 0 0
0.000518071 0.00014553 0
0 0 0
0.000745464 0.00013634 0
0.000518071 0.00014553 0
0.000402967 0.000377149 0
0.000745464 0.00013634 0
0.000556134 0.000357256 0
0 0 0
0.000745464 0.00013634 0
0 0 0
0.000959429 0.000129097 0
0.000745464 0.00013634 0
0.000556134 0.000357256 0
0.000959429 0.000129097 0
0.000711634 0.000347006 0
0 0 0
0.000959429 0.000129097 0
0 0 0
0.00116214 0.000122126 0
0.000959429 0.000129097 0
0.000711634 0.000347006 0
0.00116214 0.000122126 0
0.000878354 0.00034194 0
0 0 0
0.00116214 0.000122126 0
0 0 0
0.00134973 0.000110024 0
0.00116214 0.000122126 0
0.000878354 0.00034194 0
0.00134973 0.000110024 0
0.00105848 0.000324464 0
0 0 0
0.00134973 0.000110024 0
0 0 0
0.0015087 8.71715e-05 0
0.00134973 0.000110024 0
0.00105848 0.000324464 0
0.0015087 8.71715e-05 0
0.00124315 0.000277325 0
0 0 0
0.0015087 8.71715e-05 0
0 0 0
0.00161935 5.20189e-05 0
0.0015087 8.71715e-05 0
0.00124315 0.000277325 0
0.00161935 5.20189e-05 0
0.00141221 0.000190137 0
0 0 0
0.00161935 5.20189e-05 0
0 0 0
0.00166336 7.9096e-06 0
0.00161935 5.20189e-05 0
0.00141221 0.000190137 0
0.00166336 7.9096e-06 0
0.00153657 6.65365e-05 0
0 0 0
0.00166336 7.9096e-06 0
0 0 0
0.00163247 -3.69495e-05 0
0.00166336 7.9096e-06 0
0.00153657 6.65365e-05 0
0.00163247 -3.69495e-05 0
0.0015845 -7.72749e-05 0
0 0 0
0.00163247 -3.69495e-05 0
0 0 0
0.00153522 -7.10039e-05 0
0.00163247 -3.69495e-05 0
0.0015845 -7.72749e-05 0
0.00153522 -7.10039e-05 0
0.00152196 -0.000220579 0
0 0 0
0.00153522 -7.10039e-05 0
0 0 0
0.00139786 -8.58789e-05 0
0.00153522 -7.10039e-05 0
0.00152196 -0.000220579 0
0.00139786 -8.58789e-05 0
0.00130197 -0.000358982 0
0 0 0
0.00139786 -8.58789e-05 0
0 0 0
0.00124602 -8.95311e-05 0
0.00139786 -8.58789e-05 0
0.00130197 -0.000358982 0
0.00124602 -8.95311e-05 0
0.000794135 -0.000596336 0
0 0 0
0 0 0
7.83495e-05 0.000303185 0
-2.95867e-05 0.000368664 0
0 0 0
0 0 0
-2.95867e-05 0.000368664 0
-0.000242608 5.94588e-05 0
7.83495e-05 0.000303185 0
-2.95867e-05 0.000368664 0
0.000242115 0.000385199 0
-0.000129172 0.000403203 0
-2.95867e-05 0.000368664 0
-0.000242608 5.94588e-05 0
-0.000129172 0.000403203 0
-0.000793877 -3.9388e-05 0
0.000242115 0.000385199 0
-0.000129172 0.000403203 0
0.000402967 0.000377149 0
-0.00028371 0.000374697 0
-0.000129172 0.000403203 0
-0.000793877 -3.9388e-05 0
-0.00028371 0.000374697 0
-0.00142194 -8.853e-05 0
0.000402967 0.000377149 0
-0.00028371 0.000374697 0
0.000556134 0.000357256 0
-0.000440083 0.000363494 0
-0.00028371 0.000374697 0
-0.00142194 -8.853e-05 0
-0.000440083 0.000363494 0
-0.00203855 -6.84592e-05 0
0.000556134 0.000357256 0
-0.000440083 0.000363494 0
0.000711634 0.000347006 0
-0.00056575 0.000382444 0
-0.000440083 0.000363494 0
-0.00203855 -6.84592e-05 0
-0.00056575 0.000382444 0
-0.00260319 1.54131e-05 0
0.000711634 0.000347006 0
-0.00056575 0.000382444 0
0.000878354 0.00034194 0
-0.000642979 0.000416936 0
-0.00056575 0.000382444 0
-0.00260319 1.54131e-05 0
-0.000642979 0.000416936 0
-0.00308172 0.000141525 0
0.000878354 0.00034194 0
-0.000642979 0.000416936 0