# vtk DataFile Version 3.0
#This file was generated by the deal.II library on 2026/3/26 at 14:58:51
ASCII
DATASET UNSTRUCTURED_GRID

POINTS 4320 double
0 0 0
0.214286 0 0
0 0.25 0
0.214286 0.25 0
0 0.25 0
0.214286 0.25 0
0 0.5 0
0.214286 0.5 0
0.214286 0 0
0.428571 0 0
0.214286 0.25 0
0.428571 0.25 0
0.214286 0.25 0
0.428571 0.25 0
0.214286 0.5 0
0.428571 0.5 0
0.428571 0 0
0.642857 0 0
0.428571 0.25 0
0.642857 0.25 0
0.428571 0.25 0
0.642857 0.25 0
0.428571 0.5 0
0.642857 0.5 0
0.642857 0 0
0.857143 0 0
0.642857 0.25 0
0.857143 0.25 0
0.642857 0.25 0
0.857143 0.25 0
0.642857 0.5 0
0.857143 0.5 0
0.857143 0 0
1.07143 0 0
0.857143 0.25 0
1.07143 0.25 0
0.857143 0.25 0
1.07143 0.25 0
0.857143 0.5 0
1.07143 0.5 0
1.07143 0 0
1.28571 0 0
1.07143 0.25 0
1.28571 0.25 0
1.07143 0.25 0
1.28571 0.25 0
1.07143 0.5 0
1.28571 0.5 0
1.28571 0 0
1.5 0 0
1.28571 0.25 0
1.5 0.25 0
1.28571 0.25 0
1.5 0.25 0
1.28571 0.5 0
1.5 0.5 0
1.5 0 0
1.71429 0 0
1.5 0.25 0
1.71429 0.25 0
1.5 0.25 0
1.71429 0.25 0
1.5 0.5 0
1.71429 0.5 0
1.71429 0 0
1.92857 0 0
1.71429 0.25 0
1.92857 0.25 0
1.71429 0.25 0
1.92857 0.25 0
1.71429 0.5 0
1.92857 0.5 0
1.92857 0 0
2.14286 0 0
1.92857 0.25 0
2.14286 0.25 0
1.92857 0.25 0
2.14286 0.25 0
1.92857 0.5 0
2.14286 0.5 0
0 3 0
0 2.75 0
0.214286 3 0
0.214286 2.75 0
0.214286 3 0
0.214286 2.75 0
0.428571 3 0
0.428571 2.75 0
0.428571 3 0
0.428571 2.75 0
0.642857 3 0
0.642857 2.75 0
0.642857 3 0
0.642857 2.75 0
0.857143 3 0
0.857143 2.75 0
0.857143 3 0
0.857143 2.75 0
1.07143 3 0
1.07143 2.75 0
1.07143 3 0
1.07143 2.75 0
1.28571 3 0
1.28571 2.75 0
1.28571 3 0
1.28571 2.75 0
1.5 3 0
1.5 2.75 0
1.5 3 0
1.5 2.75 0
1.71429 3 0
1.71429 2.75 0
1.71429 3 0
1.71429 2.75 0
1.92857 3 0
1.92857 2.75 0
1.92857 3 0
1.92857 2.75 0
2.14286 3 0
2.14286 2.75 0
0 2.75 0
0 2.5 0
0.214286 2.75 0
0.214286 2.5 0
0.214286 2.75 0
0.214286 2.5 0
0.428571 2.75 0
0.428571 2.5 0
0.428571 2.75 0
0.428571 2.5 0
0.642857 2.75 0
0.642857 2.5 0
0.642857 2.75 0
0.642857 2.5 0
0.857143 2.75 0
0.857143 2.5 0
0.857143 2.75 0
0.857143 2.5 0
1.07143 2.75 0
1.07143 2.5 0
1.07143 2.75 0
1.07143 2.5 0
1.28571 2.75 0
1.28571 2.5 0
1.28571 2.75 0
1.28571 2.5 0
1.5 2.75 0
1.5 2.5 0
1.5 2.75 0
1.5 2.5 0
1.71429 2.75 0
1.71429 2.5 0
1.71429 2.75 0
1.71429 2.5 0
1.92857 2.75 0
1.92857 2.5 0
1.92857 2.75 0
1.92857 2.5 0
2.14286 2.75 0
2.14286 2.5 0
0.857143 0.75 0
0.964286 0.75 0
0.857143 0.875 0
0.964286 0.875 0
0.964286 0.75 0
1.07143 0.75 0
0.964286 0.875 0
1.07143 0.875 0
0.857143 0.875 0
0.964286 0.875 0
0.857143 1 0
0.964286 1 0
0.964286 0.875 0
1.07143 0.875 0
0.964286 1 0
1.07143 1 0
1.07143 0.75 0
1.17857 0.75 0
1.07143 0.875 0
1.17857 0.875 0
1.17857 0.75 0
1.28571 0.75 0
1.17857 0.875 0
1.28571 0.875 0
1.07143 0.875 0
1.17857 0.875 0
1.07143 1 0
1.17857 1 0
1.17857 0.875 0
1.28571 0.875 0
1.17857 1 0
1.28571 1 0
0.857143 2 0
0.857143 1.875 0
0.964286 2 0
0.964286 1.875 0
0.857143 1.875 0
0.857143 1.75 0
0.964286 1.875 0
0.964286 1.75 0
0.964286 2 0
0.964286 1.875 0
1.07143 2 0
1.07143 1.875 0
0.964286 1.875 0
0.964286 1.75 0
1.07143 1.875 0
1.07143 1.75 0
1.07143 2 0
1.07143 1.875 0
1.17857 2 0
1.17857 1.875 0
1.07143 1.875 0
1.07143 1.75 0
1.17857 1.875 0
1.17857 1.75 0
1.17857 2 0
1.17857 1.875 0
1.28571 2 0
1.28571 1.875 0
1.17857 1.875 0
1.17857 1.75 0
1.28571 1.875 0
1.28571 1.75 0
0.857143 1.25 0
0.857143 1.125 0
0.964286 1.25 0
0.964286 1.125 0
0.857143 1.125 0
0.857143 1 0
0.964286 1.125 0
0.964286 1 0
0.964286 1.25 0
0.964286 1.125 0
1.07143 1.25 0
1.07143 1.125 0
0.964286 1.125 0
0.964286 1 0
1.07143 1.125 0
1.07143 1 0
1.07143 1.25 0
1.07143 1.125 0
1.17857 1.25 0
1.17857 1.125 0
1.07143 1.125 0
1.07143 1 0
1.17857 1.125 0
1.17857 1 0
1.17857 1.25 0
1.17857 1.125 0
1.28571 1.25 0
1.28571 1.125 0
1.17857 1.125 0
1.17857 1 0
1.28571 1.125 0
1.28571 1 0
0.857143 2.25 0
0.857143 2.125 0
0.964286 2.25 0
0.964286 2.125 0
0.857143 2.125 0
0.857143 2 0
0.964286 2.125 0
0.964286 2 0
0.964286 2.25 0
0.964286 2.125 0
1.07143 2.25 0
1.07143 2.125 0
0.964286 2.125 0
0.964286 2 0
1.07143 2.125 0
1.07143 2 0
1.07143 2.25 0
1.07143 2.125 0
1.17857 2.25 0
1.17857 2.125 0
1.07143 2.125 0
1.07143 2 0
1.17857 2.125 0
1.17857 2 0
1.17857 2.25 0
1.17857 2.125 0
1.28571 2.25 0
1.28571 2.125 0
1.17857 2.125 0
1.17857 2 0
1.28571 2.125 0
1.28571 2 0
0 0.5 0
0.107143 0.5 0
0 0.625 0
0.107143 0.625 0
0.107143 0.5 0
0.214286 0.5 0
0.107143 0.625 0
0.214286 0.625 0
0 0.625 0
0.107143 0.625 0
0 0.75 0
0.107143 0.75 0
0.107143 0.625 0
0.214286 0.625 0
0.107143 0.75 0
0.214286 0.75 0
0.214286 0.5 0
0.321429 0.5 0
0.214286 0.625 0
0.321429 0.625 0
0.321429 0.5 0
0.428571 0.5 0
0.321429 0.625 0
0.428571 0.625 0
0.214286 0.625 0
0.321429 0.625 0
0.214286 0.75 0
0.321429 0.75 0
0.321429 0.625 0
0.428571 0.625 0
0.321429 0.75 0
0.428571 0.75 0
0.428571 0.5 0
0.535714 0.5 0
0.428571 0.625 0
0.535714 0.625 0
0.535714 0.5 0
0.642857 0.5 0
0.535714 0.625 0
0.642857 0.625 0
0.428571 0.625 0
0.535714 0.625 0
0.428571 0.75 0
0.535714 0.75 0
0.535714 0.625 0
0.642857 0.625 0
0.535714 0.75 0
0.642857 0.75 0
0.642857 0.5 0
0.75 0.5 0
0.642857 0.625 0
0.75 0.625 0
0.75 0.5 0
0.857143 0.5 0
0.75 0.625 0
0.857143 0.625 0
0.642857 0.625 0
0.75 0.625 0
0.642857 0.75 0
0.75 0.75 0
0.75 0.625 0
0.857143 0.625 0
0.75 0.75 0
0.857143 0.75 0
0.857143 0.5 0
0.964286 0.5 0
0.857143 0.625 0
0.964286 0.625 0
0.964286 0.5 0
1.07143 0.5 0
0.964286 0.625 0
1.07143 0.625 0
0.857143 0.625 0
0.964286 0.625 0
0.857143 0.75 0
0.964286 0.75 0
0.964286 0.625 0
1.07143 0.625 0
0.964286 0.75 0
1.07143 0.75 0
1.07143 0.5 0
1.17857 0.5 0
1.07143 0.625 0
1.17857 0.625 0
1.17857 0.5 0
1.28571 0.5 0
1.17857 0.625 0
1.28571 0.625 0
1.07143 0.625 0
1.17857 0.625 0
1.07143 0.75 0
1.17857 0.75 0
1.17857 0.625 0
1.28571 0.625 0
1.17857 0.75 0
1.28571 0.75 0
1.28571 0.5 0
1.39286 0.5 0
1.28571 0.625 0
1.39286 0.625 0
1.39286 0.5 0
1.5 0.5 0
1.39286 0.625 0
1.5 0.625 0
1.28571 0.625 0
1.39286 0.625 0
1.28571 0.75 0
1.39286 0.75 0
1.39286 0.625 0
1.5 0.625 0
1.39286 0.75 0
1.5 0.75 0
1.28571 0.75 0
1.39286 0.75 0
1.28571 0.875 0
1.39286 0.875 0
1.39286 0.75 0
1.5 0.75 0
1.39286 0.875 0
1.5 0.875 0
1.28571 0.875 0
1.39286 0.875 0
1.28571 1 0
1.39286 1 0
1.39286 0.875 0
1.5 0.875 0
1.39286 1 0
1.5 1 0
1.5 0.5 0
1.60714 0.5 0
1.5 0.625 0
1.60714 0.625 0
1.60714 0.5 0
1.71429 0.5 0
1.60714 0.625 0
1.71429 0.625 0
1.5 0.625 0
1.60714 0.625 0
1.5 0.75 0
1.60714 0.75 0
1.60714 0.625 0
1.71429 0.625 0
1.60714 0.75 0
1.71429 0.75 0
1.71429 0.5 0
1.82143 0.5 0
1.71429 0.625 0
1.82143 0.625 0
1.82143 0.5 0
1.92857 0.5 0
1.82143 0.625 0
1.92857 0.625 0
1.71429 0.625 0
1.82143 0.625 0
1.71429 0.75 0
1.82143 0.75 0
1.82143 0.625 0
1.92857 0.625 0
1.82143 0.75 0
1.92857 0.75 0
1.92857 0.5 0
2.03571 0.5 0
1.92857 0.625 0
2.03571 0.625 0
2.03571 0.5 0
2.14286 0.5 0
2.03571 0.625 0
2.14286 0.625 0
1.92857 0.625 0
2.03571 0.625 0
1.92857 0.75 0
2.03571 0.75 0
2.03571 0.625 0
2.14286 0.625 0
2.03571 0.75 0
2.14286 0.75 0
2.14286 0 0
2.25 0 0
2.14286 0.125 0
2.25 0.125 0
2.25 0 0
2.35714 0 0
2.25 0.125 0
2.35714 0.125 0
2.14286 0.125 0
2.25 0.125 0
2.14286 0.25 0
2.25 0.25 0
2.25 0.125 0
2.35714 0.125 0
2.25 0.25 0
2.35714 0.25 0
2.14286 0.25 0
2.25 0.25 0
2.14286 0.375 0
2.25 0.375 0
2.25 0.25 0
2.35714 0.25 0
2.25 0.375 0
2.35714 0.375 0
2.14286 0.375 0
2.25 0.375 0
2.14286 0.5 0
2.25 0.5 0
2.25 0.375 0
2.35714 0.375 0
2.25 0.5 0
2.35714 0.5 0
2.14286 0.5 0
2.25 0.5 0
2.14286 0.625 0
2.25 0.625 0
2.25 0.5 0
2.35714 0.5 0
2.25 0.625 0
2.35714 0.625 0
2.14286 0.625 0
2.25 0.625 0
2.14286 0.75 0
2.25 0.75 0
2.25 0.625 0
2.35714 0.625 0
2.25 0.75 0
2.35714 0.75 0
2.35714 0 0
2.46429 0 0
2.35714 0.125 0
2.46429 0.125 0
2.46429 0 0
2.57143 0 0
2.46429 0.125 0
2.57143 0.125 0
2.35714 0.125 0
2.46429 0.125 0
2.35714 0.25 0
2.46429 0.25 0
2.46429 0.125 0
2.57143 0.125 0
2.46429 0.25 0
2.57143 0.25 0
2.35714 0.25 0
2.46429 0.25 0
2.35714 0.375 0
2.46429 0.375 0
2.46429 0.25 0
2.57143 0.25 0
2.46429 0.375 0
2.57143 0.375 0
2.35714 0.375 0
2.46429 0.375 0
2.35714 0.5 0
2.46429 0.5 0
2.46429 0.375 0
2.57143 0.375 0
2.46429 0.5 0
2.57143 0.5 0
2.35714 0.5 0
2.46429 0.5 0
2.35714 0.625 0
2.46429 0.625 0
2.46429 0.5 0
2.57143 0.5 0
2.46429 0.625 0
2.57143 0.625 0
2.35714 0.625 0
2.46429 0.625 0
2.35714 0.75 0
2.46429 0.75 0
2.46429 0.625 0
2.57143 0.625 0
2.46429 0.75 0
2.57143 0.75 0
2.57143 0 0
2.67857 0 0
2.57143 0.125 0
2.67857 0.125 0
2.67857 0 0
2.78571 0 0
2.67857 0.125 0
2.78571 0.125 0
2.57143 0.125 0
2.67857 0.125 0
2.57143 0.25 0
2.67857 0.25 0
2.67857 0.125 0
2.78571 0.125 0
2.67857 0.25 0
2.78571 0.25 0
2.57143 0.25 0
2.67857 0.25 0
2.57143 0.375 0
2.67857 0.375 0
2.67857 0.25 0
2.78571 0.25 0
2.67857 0.375 0
2.78571 0.375 0
2.57143 0.375 0
2.67857 0.375 0
2.57143 0.5 0
2.67857 0.5 0
2.67857 0.375 0
2.78571 0.375 0
2.67857 0.5 0
2.78571 0.5 0
2.57143 0.5 0
2.67857 0.5 0
2.57143 0.625 0
2.67857 0.625 0
2.67857 0.5 0
2.78571 0.5 0
2.67857 0.625 0
2.78571 0.625 0
2.57143 0.625 0
2.67857 0.625 0
2.57143 0.75 0
2.67857 0.75 0
2.67857 0.625 0
2.78571 0.625 0
2.67857 0.75 0
2.78571 0.75 0
2.78571 0 0
2.89286 0 0
2.78571 0.125 0
2.89286 0.125 0
2.89286 0 0
3 0 0
2.89286 0.125 0
3 0.125 0
2.78571 0.125 0
2.89286 0.125 0
2.78571 0.25 0
2.89286 0.25 0
2.89286 0.125 0
3 0.125 0
2.89286 0.25 0
3 0.25 0
2.78571 0.25 0
2.89286 0.25 0
2.78571 0.375 0
2.89286 0.375 0
2.89286 0.25 0
3 0.25 0
2.89286 0.375 0
3 0.375 0
2.78571 0.375 0
2.89286 0.375 0
2.78571 0.5 0
2.89286 0.5 0
2.89286 0.375 0
3 0.375 0
2.89286 0.5 0
3 0.5 0
2.78571 0.5 0
2.89286 0.5 0
2.78571 0.625 0
2.89286 0.625 0
2.89286 0.5 0
3 0.5 0
2.89286 0.625 0
3 0.625 0
2.78571 0.625 0
2.89286 0.625 0
2.78571 0.75 0
2.89286 0.75 0
2.89286 0.625 0
3 0.625 0
2.89286 0.75 0
3 0.75 0
1.28571 2 0
1.28571 1.875 0
1.39286 2 0
1.39286 1.875 0
1.28571 1.875 0
1.28571 1.75 0
1.39286 1.875 0
1.39286 1.75 0
1.39286 2 0
1.39286 1.875 0
1.5 2 0
1.5 1.875 0
1.39286 1.875 0
1.39286 1.75 0
1.5 1.875 0
1.5 1.75 0
0 1.75 0
0 1.625 0
0.107143 1.75 0
0.107143 1.625 0
0 1.625 0
0 1.5 0
0.107143 1.625 0
0.107143 1.5 0
[...]
POINT_DATA 4320
VECTORS velocity double
0 0 0
0 0 0
0 0 0
-5.02406e-06 -7.83631e-06 0
0 0 0
-5.02406e-06 -7.83631e-06 0
0 0 0
-0.00067398 0.000854178 0
0 0 0
0 0 0
-5.02406e-06 -7.83631e-06 0
-5.22901e-05 3.01103e-05 0
-5.02406e-06 -7.83631e-06 0
-5.22901e-05 3.01103e-05 0
-0.00067398 0.000854178 0
-0.00186839 0.000712133 0
0 0 0
0 0 0
-5.22901e-05 3.01103e-05 0
-4.69945e-05 -6.4151e-05 0
-5.22901e-05 3.01103e-05 0
-4.69945e-05 -6.4151e-05 0
-0.00186839 0.000712133 0
-0.00279271 0.000422383 0
0 0 0
0 0 0
-4.69945e-05 -6.4151e-05 0
7.41063e-05 -0.000101292 0
-4.69945e-05 -6.4151e-05 0
7.41063e-05 -0.000101292 0
-0.00279271 0.000422383 0
-0.00342745 0.000112601 0
0 0 0
0 0 0
7.41063e-05 -0.000101292 0
0.000138849 6.5905e-06 0
7.41063e-05 -0.000101292 0
0.000138849 6.5905e-06 0
-0.00342745 0.000112601 0
-0.00369181 0.000132549 0
0 0 0
0 0 0
0.000138849 6.5905e-06 0
-0.000232141 0.000413714 0
0.000138849 6.5905e-06 0
-0.000232141 0.000413714 0
-0.00369181 0.000132549 0
-0.00386137 0.00103378 0
0 0 0
0 0 0
-0.000232141 0.000413714 0
-0.00198968 0.00163175 0
-0.000232141 0.000413714 0
-0.00198968 0.00163175 0
-0.00386137 0.00103378 0
-0.00448318 0.00391223 0
0 0 0
0 0 0
-0.00198968 0.00163175 0
-0.00712714 0.00435996 0
-0.00198968 0.00163175 0
-0.00712714 0.00435996 0
-0.00448318 0.00391223 0
-0.00622336 0.010233 0
0 0 0
0 0 0
-0.00712714 0.00435996 0
-0.0175014 0.00773303 0
-0.00712714 0.00435996 0
-0.0175014 0.00773303 0
-0.00622336 0.010233 0
-0.0094636 0.0178483 0
0 0 0
0 0 0
-0.0175014 0.00773303 0
-0.0313647 0.00873238 0
-0.0175014 0.00773303 0
-0.0313647 0.00873238 0
-0.0094636 0.0178483 0
-0.0072004 0.0120255 0
0 0 0
0 0 0
0 0 0
-5.02406e-06 7.83631e-06 0
0 0 0
-5.02406e-06 7.83631e-06 0
0 0 0
-5.22901e-05 -3.01103e-05 0
0 0 0
-5.22901e-05 -3.01103e-05 0
0 0 0
-4.69945e-05 6.4151e-05 0
0 0 0
-4.69945e-05 6.4151e-05 0
0 0 0
7.41063e-05 0.000101292 0
0 0 0
7.41063e-05 0.000101292 0
0 0 0
0.000138849 -6.5905e-06 0
0 0 0
0.000138849 -6.5905e-06 0
0 0 0
-0.000232141 -0.000413714 0
0 0 0
-0.000232141 -0.000413714 0
0 0 0
-0.00198968 -0.00163175 0
0 0 0
-0.00198968 -0.00163175 0
0 0 0
-0.00712714 -0.00435996 0
0 0 0
-0.00712714 -0.00435996 0
0 0 0
-0.0175014 -0.00773303 0
0 0 0
-0.0175014 -0.00773303 0
0 0 0
-0.0313647 -0.00873238 0
0 0 0
0 0 0
-5.02406e-06 7.83631e-06 0
-0.00067398 -0.000854178 0
-5.02406e-06 7.83631e-06 0
-0.00067398 -0.000854178 0
-5.22901e-05 -3.01103e-05 0
-0.00186839 -0.000712133 0
-5.22901e-05 -3.01103e-05 0
-0.00186839 -0.000712133 0
-4.69945e-05 6.4151e-05 0
-0.00279271 -0.000422383 0
-4.69945e-05 6.4151e-05 0
-0.00279271 -0.000422383 0
7.41063e-05 0.000101292 0
-0.00342745 -0.000112601 0
7.41063e-05 0.000101292 0
-0.00342745 -0.000112601 0
0.000138849 -6.5905e-06 0
-0.00369181 -0.000132549 0
0.000138849 -6.5905e-06 0
-0.00369181 -0.000132549 0
-0.000232141 -0.000413714 0
-0.00386137 -0.00103378 0
-0.000232141 -0.000413714 0
-0.00386137 -0.00103378 0
-0.00198968 -0.00163175 0
-0.00448318 -0.00391223 0
-0.00198968 -0.00163175 0
-0.00448318 -0.00391223 0
-0.00712714 -0.00435996 0
-0.00622336 -0.010233 0
-0.00712714 -0.00435996 0
-0.00622336 -0.010233 0
-0.0175014 -0.00773303 0
-0.0094636 -0.0178483 0
-0.0175014 -0.00773303 0
-0.0094636 -0.0178483 0
-0.0313647 -0.00873238 0
-0.0072004 -0.0120255 0
-0.0057227 0.00119675 0
-0.00634851 0.00100661 0
0.000263508 0.00148133 0
0.000325898 0.00139036 0
-0.00634851 0.00100661 0
-0.00699618 0.000755439 0
0.000325898 0.00139036 0
0.000339945 0.00112338 0
0.000263508 0.00148133 0
0.000325898 0.00139036 0
0.0271877 0.00058362 0
0.0286716 0.000518558 0
0.000325898 0.00139036 0
0.000339945 0.00112338 0
0.0286716 0.000518558 0
0.0300117 0.000437438 0
-0.00699618 0.000755439 0
-0.00742147 0.000531743 0
0.000339945 0.00112338 0
0.000183458 0.000851395 0
-0.00742147 0.000531743 0
-0.0073815 0.00060898 0
0.000183458 0.000851395 0
-0.000102687 0.000580975 0
0.000339945 0.00112338 0
0.000183458 0.000851395 0
0.0300117 0.000437438 0
0.0312043 0.000344451 0
0.000183458 0.000851395 0
-0.000102687 0.000580975 0
0.0312043 0.000344451 0
0.0322285 0.000239598 0
0.0271877 -0.00058362 0
0.109073 0.000311642 0
0.0286716 -0.000518558 0
0.109092 0.000321441 0
0.109073 0.000311642 0
0.187022 0.000249134 0
0.109092 0.000321441 0
0.186927 0.000258857 0
0.0286716 -0.000518558 0
0.109092 0.000321441 0
0.0300117 -0.000437438 0
0.109131 0.000320834 0
0.109092 0.000321441 0
0.186927 0.000258857 0
0.109131 0.000320834 0
0.186824 0.000277434 0
0.0300117 -0.000437438 0
0.109131 0.000320834 0
0.0312043 -0.000344451 0
0.10918 0.000345256 0
0.109131 0.000320834 0
0.186824 0.000277434 0
0.10918 0.000345256 0
0.18671 0.000279873 0
0.0312043 -0.000344451 0
0.10918 0.000345256 0
0.0322285 -0.000239598 0
0.109233 0.000334581 0
0.10918 0.000345256 0
0.18671 0.000279873 0
0.109233 0.000334581 0
0.186585 0.000288441 0
0.187022 -0.000249134 0
0.109073 -0.000311642 0
0.186927 -0.000258857 0
0.109092 -0.000321441 0
0.109073 -0.000311642 0
0.0271877 0.00058362 0
0.109092 -0.000321441 0
0.0286716 0.000518558 0
0.186927 -0.000258857 0
0.109092 -0.000321441 0
0.186824 -0.000277434 0
0.109131 -0.000320834 0
0.109092 -0.000321441 0
0.0286716 0.000518558 0
0.109131 -0.000320834 0
0.0300117 0.000437438 0
0.186824 -0.000277434 0
0.109131 -0.000320834 0
0.18671 -0.000279873 0
0.10918 -0.000345256 0
0.109131 -0.000320834 0
0.0300117 0.000437438 0
0.10918 -0.000345256 0
0.0312043 0.000344451 0
0.18671 -0.000279873 0
0.10918 -0.000345256 0
0.186585 -0.000288441 0
0.109233 -0.000334581 0
0.10918 -0.000345256 0
0.0312043 0.000344451 0
0.109233 -0.000334581 0
0.0322285 0.000239598 0
-0.0057227 -0.00119675 0
0.000263508 -0.00148133 0
-0.00634851 -0.00100661 0
0.000325898 -0.00139036 0
0.000263508 -0.00148133 0
0.0271877 -0.00058362 0
0.000325898 -0.00139036 0
0.0286716 -0.000518558 0
-0.00634851 -0.00100661 0
0.000325898 -0.00139036 0
-0.00699618 -0.000755439 0
0.000339945 -0.00112338 0
0.000325898 -0.00139036 0
0.0286716 -0.000518558 0
0.000339945 -0.00112338 0
0.0300117 -0.000437438 0
-0.00699618 -0.000755439 0
0.000339945 -0.00112338 0
-0.00742147 -0.000531743 0
0.000183458 -0.000851395 0
0.000339945 -0.00112338 0
0.0300117 -0.000437438 0
0.000183458 -0.000851395 0
0.0312043 -0.000344451 0
-0.00742147 -0.000531743 0
0.000183458 -0.000851395 0
-0.0073815 -0.00060898 0
-0.000102687 -0.000580975 0
0.000183458 -0.000851395 0
0.0312043 -0.000344451 0
-0.000102687 -0.000580975 0
0.0322285 -0.000239598 0
0 0 0
-0.000161711 0.000433877 0
0 0 0
-0.000454812 0.00115882 0
-0.000161711 0.000433877 0
-0.00067398 0.000854178 0
-0.000454812 0.00115882 0
-0.00130838 0.00172708 0
0 0 0
-0.000454812 0.00115882 0
0 0 0
-0.000673957 0.00247863 0
-0.000454812 0.00115882 0
-0.00130838 0.00172708 0
-0.000673957 0.00247863 0
-0.00182683 0.00276196 0
-0.00067398 0.000854178 0
-0.00131693 0.000784321 0
-0.00130838 0.00172708 0
-0.0021329 0.00163025 0
-0.00131693 0.000784321 0
-0.00186839 0.000712133 0
-0.0021329 0.00163025 0
-0.00294268 0.00146246 0
-0.00130838 0.00172708 0
-0.0021329 0.00163025 0
-0.00182683 0.00276196 0
-0.00267691 0.00256357 0
-0.0021329 0.00163025 0
-0.00294268 0.00146246 0
-0.00267691 0.00256357 0
-0.00336583 0.00229177 0
-0.00186839 0.000712133 0
-0.00235235 0.000567658 0
-0.00294268 0.00146246 0
-0.00369909 0.00127267 0
-0.00235235 0.000567658 0
-0.00279271 0.000422383 0
-0.00369909 0.00127267 0
-0.00440273 0.00105999 0
-0.00294268 0.00146246 0
-0.00369909 0.00127267 0
-0.00336583 0.00229177 0
-0.00397436 0.00204911 0
-0.00369909 0.00127267 0
-0.00440273 0.00105999 0
-0.00397436 0.00204911 0
-0.00455819 0.001797 0
-0.00279271 0.000422383 0
-0.00316061 0.000266651 0
-0.00440273 0.00105999 0
-0.00503524 0.000804367 0
-0.00316061 0.000266651 0
-0.00342745 0.000112601 0
-0.00503524 0.000804367 0
-0.00561066 0.000565408 0
-0.00440273 0.00105999 0
-0.00503524 0.000804367 0
-0.00455819 0.001797 0
-0.00515669 0.00151321 0
-0.00503524 0.000804367 0
-0.00561066 0.000565408 0
-0.00515669 0.00151321 0
-0.0057227 0.00119675 0
-0.00342745 0.000112601 0
-0.00360171 0.000120682 0
-0.00561066 0.000565408 0
-0.00605114 0.000392344 0
-0.00360171 0.000120682 0
-0.00369181 0.000132549 0
-0.00605114 0.000392344 0
-0.00632595 0.000294182 0
-0.00561066 0.000565408 0
-0.00605114 0.000392344 0
-0.0057227 0.00119675 0
-0.00634851 0.00100661 0
-0.00605114 0.000392344 0
-0.00632595 0.000294182 0
-0.00634851 0.00100661 0
-0.00699618 0.000755439 0
-0.00369181 0.000132549 0
-0.0037581 0.00057788 0
-0.00632595 0.000294182 0
-0.00632595 0.000501711 0
-0.0037581 0.00057788 0
-0.00386137 0.00103378 0
-0.00632595 0.000501711 0
-0.00609172 0.000967009 0
-0.00632595 0.000294182 0
-0.00632595 0.000501711 0
-0.00699618 0.000755439 0
-0.00742147 0.000531743 0
-0.00632595 0.000501711 0
-0.00609172 0.000967009 0
-0.00742147 0.000531743 0
-0.0073815 0.00060898 0
-0.00386137 0.00103378 0
-0.00407764 0.0024617 0
-0.00609172 0.000967009 0
-0.00561052 0.00223041 0
-0.00407764 0.0024617 0
-0.00448318 0.00391223 0
-0.00561052 0.00223041 0
-0.00504758 0.00397182 0
-0.00609172 0.000967009 0
-0.00561052 0.00223041 0
-0.0073815 0.00060898 0
-0.00667345 0.00119009 0
-0.00561052 0.00223041 0
-0.00504758 0.00397182 0
-0.00667345 0.00119009 0
-0.0051647 0.00258473 0
-0.0073815 0.00060898 0
-0.00667345 0.00119009 0
-0.000102687 0.000580975 0
-0.000304092 0.000624696 0
-0.00667345 0.00119009 0
-0.0051647 0.00258473 0
-0.000304092 0.000624696 0
5.22863e-05 0.000963641 0
-0.000102687 0.000580975 0
-0.000304092 0.000624696 0
0.0322285 0.000239598 0
0.0331049 0.000185018 0
-0.000304092 0.000624696 0
5.22863e-05 0.000963641 0
0.0331049 0.000185018 0
0.0338212 0.000155084 0
-0.00448318 0.00391223 0
-0.00516834 0.00705858 0
-0.00504758 0.00397182 0
-0.00431353 0.00695476 0
-0.00516834 0.00705858 0
-0.00622336 0.010233 0
-0.00431353 0.00695476 0
-0.00310866 0.0101748 0
-0.00504758 0.00397182 0
-0.00431353 0.00695476 0
-0.0051647 0.00258473 0
-0.00275977 0.00466729 0
-0.00431353 0.00695476 0
-0.00310866 0.0101748 0
-0.00275977 0.00466729 0
0.00036992 0.00739308 0
-0.00622336 0.010233 0
-0.00765551 0.0140663 0
-0.00310866 0.0101748 0
-0.00165604 0.0141095 0
-0.00765551 0.0140663 0
-0.0094636 0.0178483 0
-0.00165604 0.0141095 0
0.000446501 0.0174567 0
-0.00310866 0.0101748 0
-0.00165604 0.0141095 0
0.00036992 0.00739308 0
0.00441739 0.010461 0
-0.00165604 0.0141095 0
0.000446501 0.0174567 0
0.00441739 0.010461 0
0.00925913 0.0129948 0
-0.0094636 0.0178483 0
-0.00989315 0.0150289 0
0.000446501 0.0174567 0
0.00237864 0.0136465 0
-0.00989315 0.0150289 0
-0.0072004 0.0120255 0
0.00237864 0.0136465 0
0.00350826 0.00894734 0
0.000446501 0.0174567 0
0.00237864 0.0136465 0
0.00925913 0.0129948 0
0.0133514 0.0110606 0
0.00237864 0.0136465 0
0.00350826 0.00894734 0
0.0133514 0.0110606 0
0.0154944 0.0077134 0
0 0 0
0 0 0
-0.0157791 0.00228592 0
-0.0247602 0.00815449 0
0 0 0
0 0 0
-0.0247602 0.00815449 0
-0.0301793 -0.0015514 0
-0.0157791 0.00228592 0
-0.0247602 0.00815449 0
-0.0313647 0.00873238 0
-0.0299388 0.0106306 0
-0.0247602 0.00815449 0
-0.0301793 -0.0015514 0
-0.0299388 0.0106306 0
-0.0278416 -6.51085e-05 0
-0.0313647 0.00873238 0
-0.0299388 0.0106306 0
-0.0198836 0.0137008 0
-0.0185203 0.00261318 0
-0.0299388 0.0106306 0
-0.0278416 -6.51085e-05 0
-0.0185203 0.00261318 0
-0.0167709 0.00327196 0
-0.0198836 0.0137008 0
-0.0185203 0.00261318 0
-0.0072004 0.0120255 0
-0.00674074 0.00218174 0
-0.0185203 0.00261318 0
-0.0167709 0.00327196 0
-0.00674074 0.00218174 0
-0.00675456 0.00157324 0
-0.0072004 0.0120255 0
-0.00674074 0.00218174 0
0.00350826 0.00894734 0
0.00407519 0.00404061 0
-0.00674074 0.00218174 0
-0.00675456 0.00157324 0
0.00407519 0.00404061 0
0.00408774 -0.000278145 0
0.00350826 0.00894734 0
0.00407519 0.00404061 0
0.0154944 0.0077134 0
0.0163513 0.0035938 0
0.00407519 0.00404061 0
0.00408774 -0.000278145 0
0.0163513 0.0035938 0
0.0161681 0.000366918 0
0 0 0
0 0 0
-0.0301793 -0.0015514 0
-0.0299514 0.00126295 0
0 0 0
0 0 0
-0.0299514 0.00126295 0
-0.0259337 -0.00580915 0
-0.0301793 -0.0015514 0
-0.0299514 0.00126295 0
-0.0278416 -6.51085e-05 0
-0.0272209 -0.00128101 0
-0.0299514 0.00126295 0
-0.0259337 -0.00580915 0
-0.0272209 -0.00128101 0
-0.025636 -0.00977258 0
-0.0278416 -6.51085e-05 0
-0.0272209 -0.00128101 0
-0.0167709 0.00327196 0
-0.0161807 -0.00593779 0
-0.0272209 -0.00128101 0
-0.025636 -0.00977258 0
-0.0161807 -0.00593779 0
-0.0152286 -0.00816819 0
-0.0167709 0.00327196 0
-0.0161807 -0.00593779 0
-0.00675456 0.00157324 0
-0.00602044 -0.00580625 0
-0.0161807 -0.00593779 0
-0.0152286 -0.00816819 0
-0.00602044 -0.00580625 0
-0.00579608 -0.00972073 0
-0.00675456 0.00157324 0
-0.00602044 -0.00580625 0
0.00408774 -0.000278145 0
0.00391748 -0.00463524 0
-0.00602044 -0.00580625 0
-0.00579608 -0.00972073 0
0.00391748 -0.00463524 0
0.00276161 -0.00978872 0
0.00408774 -0.000278145 0
0.00391748 -0.00463524 0
0.0161681 0.000366918 0
0.0152296 -0.00401355 0
0.00391748 -0.00463524 0
0.00276161 -0.00978872 0
0.0152296 -0.00401355 0
0.0126931 -0.0060846 0
0 0 0
0 0 0
-0.0259337 -0.00580915 0
-0.0177007 -0.00391585 0
0 0 0
0 0 0
-0.0177007 -0.00391585 0
-0.00856625 -0.00680358 0
-0.0259337 -0.00580915 0
-0.0177007 -0.00391585 0
-0.025636 -0.00977258 0
-0.022114 -0.013735 0
-0.0177007 -0.00391585 0
-0.00856625 -0.00680358 0
-0.022114 -0.013735 0
-0.0142639 -0.0167935 0
-0.025636 -0.00977258 0
-0.022114 -0.013735 0
-0.0152286 -0.00816819 0
-0.0164749 -0.0179839 0
-0.022114 -0.013735 0
-0.0142639 -0.0167935 0
-0.0164749 -0.0179839 0
-0.0142466 -0.0243593 0
-0.0152286 -0.00816819 0
-0.0164749 -0.0179839 0
-0.00579608 -0.00972073 0
-0.00530865 -0.0156189 0
-0.0164749 -0.0179839 0
-0.0142466 -0.0243593 0
-0.00530865 -0.0156189 0
-0.00764923 -0.0266016 0
-0.00579608 -0.00972073 0
-0.00530865 -0.0156189 0
0.00276161 -0.00978872 0
0.000916187 -0.0140129 0
-0.00530865 -0.0156189 0
-0.00764923 -0.0266016 0
0.000916187 -0.0140129 0
-0.00175137 -0.0224091 0
0.00276161 -0.00978872 0
0.000916187 -0.0140129 0
0.0126931 -0.0060846 0
0.0103373 -0.0128735 0
0.000916187 -0.0140129 0
-0.00175137 -0.0224091 0
0.0103373 -0.0128735 0
0.00365481 -0.0125563 0
0 0 0
0 0 0
-0.00856625 -0.00680358 0
-0.00147485 -0.00153323 0
0 0 0
0 0 0
-0.00147485 -0.00153323 0
0 0 0
-0.00856625 -0.00680358 0
-0.00147485 -0.00153323 0
-0.0142639 -0.0167935 0
-0.0058024 -0.00966515 0
-0.00147485 -0.00153323 0
0 0 0
-0.0058024 -0.00966515 0
0 0 0
-0.0142639 -0.0167935 0
-0.0058024 -0.00966515 0
-0.0142466 -0.0243593 0
-0.00537608 -0.0223128 0
-0.0058024 -0.00966515 0
0 0 0
-0.00537608 -0.0223128 0
0 0 0
-0.0142466 -0.0243593 0
-0.00537608 -0.0223128 0
-0.00764923 -0.0266016 0
-0.00481767 -0.0337028 0
-0.00537608 -0.0223128 0
0 0 0
-0.00481767 -0.0337028 0
0 0 0
-0.00764923 -0.0266016 0
-0.00481767 -0.0337028 0
-0.00175137 -0.0224091 0
-0.00196426 -0.0410597 0
-0.00481767 -0.0337028 0
0 0 0
-0.00196426 -0.0410597 0
0 0 0
-0.00175137 -0.0224091 0
-0.00196426 -0.0410597 0
0.00365481 -0.0125563 0
-0.00173989 -0.0446322 0
-0.00196426 -0.0410597 0
0 0 0
-0.00173989 -0.0446322 0
0 0 0
0.0322285 -0.000239598 0
0.109233 0.000334581 0
0.0331049 -0.000185018 0
0.109283 0.000334181 0
0.109233 0.000334581 0
0.186585 0.000288441 0
0.109283 0.000334181 0
0.186454 0.000261805 0
0.0331049 -0.000185018 0
0.109283 0.000334181 0
0.0338212 -0.000155084 0
0.109346 0.000252884 0
0.109283 0.000334181 0
0.186454 0.000261805 0
0.109346 0.000252884 0
0.186325 0.000230005 0
0.1875 0 0
0.234375 0 0
0.187495 0.000102741 0
0.234342 5.44454e-05 0
0.234375 0 0
0.25 0 0
0.234342 5.44454e-05 0
0.249991 -2.17698e-17 0
0.187495 0.000102741 0
0.234342 5.44454e-05 0
0.187419 0.000185672 0
0.234286 7.34607e-05 0
0.234342 5.44454e-05 0
0.249991 -2.17698e-17 0
0.234286 7.34607e-05 0
0.249936 -1.93843e-18 0
0.187419 0.000185672 0
0.234286 7.34607e-05 0
0.187333 0.000192807 0
0.234208 0.000113555 0
0.234286 7.34607e-05 0
0.249936 -1.93843e-18 0
0.234208 0.000113555 0
0.249857 -6.0851e-18 0
0.187333 0.000192807 0
0.234208 0.000113555 0
0.18725 0.000234759 0
0.234117 0.000101519 0
0.234208 0.000113555 0
0.249857 -6.0851e-18 0
0.234117 0.000101519 0
0.249762 -4.38696e-17 0
0.18725 0.000234759 0
0.234117 0.000101519 0
0.18717 0.000209846 0
0.234019 0.000137616 0
0.234117 0.000101519 0
0.249762 -4.38696e-17 0
0.234019 0.000137616 0
0.249658 2.95556e-18 0
0.18717 0.000209846 0
0.234019 0.000137616 0
0.187092 0.00025818 0
0.233917 0.000106947 0
0.234019 0.000137616 0
0.249658 2.95556e-18 0
0.233917 0.000106947 0
0.249549 -3.34036e-17 0
0.187092 0.00025818 0
0.233917 0.000106947 0
0.187012 0.000210085 0
0.233813 0.000152458 0
0.233917 0.000106947 0
0.249549 -3.34036e-17 0
0.233813 0.000152458 0
0.249434 -2.99638e-17 0
0.187012 0.000210085 0
0.233813 0.000152458 0
0.187022 0.000249134 0
0.233678 0.000136603 0
0.233813 0.000152458 0
0.249434 -2.99638e-17 0
0.233678 0.000136603 0
0.24933 -6.497e-18 0
0.187022 0.000249134 0
0.233678 0.000136603 0
0.186927 0.000258857 0
0.233565 0.000140763 0
0.233678 0.000136603 0
0.24933 -6.497e-18 0
0.233565 0.000140763 0
0.249208 1.42462e-17 0
0.186927 0.000258857 0
0.233565 0.000140763 0
0.186824 0.000277434 0
0.233449 0.000143646 0
0.233565 0.000140763 0
0.249208 1.42462e-17 0
0.233449 0.000143646 0
0.249083 -3.46575e-17 0
0.186824 0.000277434 0
0.233449 0.000143646 0
0.18671 0.000279873 0
0.233331 0.00014662 0
0.233449 0.000143646 0
0.249083 -3.46575e-17 0
0.233331 0.00014662 0
0.248955 1.89261e-17 0
0.18671 0.000279873 0
0.233331 0.00014662 0
0.186585 0.000288441 0
0.233213 0.000141493 0
0.233331 0.00014662 0
0.248955 1.89261e-17 0
0.233213 0.000141493 0
0.248828 -5.21905e-17 0
0.186585 0.000288441 0
0.233213 0.000141493 0
0.186454 0.000261805 0
0.233102 0.00012941 0
0.233213 0.000141493 0
0.248828 -5.21905e-17 0
0.233102 0.00012941 0
0.248708 4.76976e-17 0
0.186454 0.000261805 0
0.233102 0.00012941 0
0.186325 0.000230005 0
0.233008 0.000103203 0
0.233102 0.00012941 0
0.248708 4.76976e-17 0
0.233008 0.000103203 0
0.248605 -3.47379e-19 0
0.186325 0.000230005 0
0.233008 0.000103203 0
0.186225 0.000140178 0
0.232939 6.80896e-05 0
0.233008 0.000103203 0
0.248605 -3.47379e-19 0
0.232939 6.80896e-05 0
0.248528 4.07002e-17 0
0.186225 0.000140178 0
0.232939 6.80896e-05 0
0.186189 3.841e-05 0
0.232902 2.23515e-05 0
0.232939 6.80896e-05 0
0.248528 4.07002e-17 0
0.232902 2.23515e-05 0
0.248489 -3.12866e-17 0
0.186189 3.841e-05 0
0.232902 2.23515e-05 0
0.186209 -6.19253e-05 0
0.232906 -2.08577e-05 0
0.232902 2.23515e-05 0
0.248489 -3.12866e-17 0
0.232906 -2.08577e-05 0
0.248485 5.25254e-18 0
0.186209 -6.19253e-05 0
0.232906 -2.08577e-05 0
0.186285 -0.000131036 0
0.232942 -4.36626e-05 0
0.232906 -2.08577e-05 0
0.248485 5.25254e-18 0
0.232942 -4.36626e-05 0
0.248506 -2.43461e-17 0
0.186285 -0.000131036 0
0.232942 -4.36626e-05 0
0.186395 -0.000121886 0
0.232987 -3.27862e-05 0
0.232942 -4.36626e-05 0
0.248506 -2.43461e-17 0
0.232987 -3.27862e-05 0
0.248529 -1.78564e-17 0
0.186395 -0.000121886 0
0.232987 -3.27862e-05 0
0.186494 -2.09661e-05 0
0.233005 2.40731e-05 0
0.232987 -3.27862e-05 0
0.248529 -1.78564e-17 0
0.233005 2.40731e-05 0
0.24852 2.78478e-17 0
0.186494 -2.09661e-05 0
0.233005 2.40731e-05 0
0.186532 0.000186365 0
0.232956 0.000125332 0
0.233005 2.40731e-05 0
0.24852 2.78478e-17 0
0.232956 0.000125332 0
0.248442 -5.60853e-17 0
0.186532 0.000186365 0
0.232956 0.000125332 0
0.186462 0.00046828 0
0.232802 0.000266546 0
0.232956 0.000125332 0
0.248442 -5.60853e-17 0
0.232802 0.000266546 0
0.248263 1.94675e-17 0
0.186462 0.00046828 0
0.232802 0.000266546 0
0.18625 0.000793031 0
0.232519 0.000414167 0
0.232802 0.000266546 0
0.248263 1.94675e-17 0
0.232519 0.000414167 0
0.247964 -1.15008e-17 0
0.18625 0.000793031 0
0.232519 0.000414167 0
0.185867 0.00111093 0
0.232104 0.000559047 0
0.232519 0.000414167 0
0.247964 -1.15008e-17 0
0.232104 0.000559047 0
0.24755 -2.02884e-17 0
0.185867 0.00111093 0
0.232104 0.000559047 0
0.185304 0.00132981 0
0.23159 0.000619564 0
0.232104 0.000559047 0
0.24755 -2.02884e-17 0
0.23159 0.000619564 0
0.247058 -1.00398e-17 0
0.185304 0.00132981 0
0.23159 0.000619564 0
0.184645 0.00129066 0
0.231066 0.000604846 0
0.23159 0.000619564 0