# vtk DataFile Version 3.0
#This file was generated by the deal.II library on 2026/3/26 at 15:00:47
ASCII
DATASET UNSTRUCTURED_GRID

POINTS 22272 double
0.214286 0.5 0
0.321429 0.5 0
0.214286 0.625 0
0.321429 0.625 0
0.321429 0.5 0
0.428571 0.5 0
0.321429 0.625 0
0.428571 0.625 0
0.214286 0.625 0
0.321429 0.625 0
0.214286 0.75 0
0.321429 0.75 0
0.321429 0.625 0
0.428571 0.625 0
0.321429 0.75 0
0.428571 0.75 0
0.428571 0.5 0
0.535714 0.5 0
0.428571 0.625 0
0.535714 0.625 0
0.535714 0.5 0
0.642857 0.5 0
0.535714 0.625 0
0.642857 0.625 0
0.428571 0.625 0
0.535714 0.625 0
0.428571 0.75 0
0.535714 0.75 0
0.535714 0.625 0
0.642857 0.625 0
0.535714 0.75 0
0.642857 0.75 0
2.35714 0.5 0
2.46429 0.5 0
2.35714 0.625 0
2.46429 0.625 0
2.46429 0.5 0
2.57143 0.5 0
2.46429 0.625 0
2.57143 0.625 0
2.35714 0.625 0
2.46429 0.625 0
2.35714 0.75 0
2.46429 0.75 0
2.46429 0.625 0
2.57143 0.625 0
2.46429 0.75 0
2.57143 0.75 0
0 1.75 0
0 1.625 0
0.107143 1.75 0
0.107143 1.625 0
0 1.625 0
0 1.5 0
0.107143 1.625 0
0.107143 1.5 0
0.107143 1.75 0
0.107143 1.625 0
0.214286 1.75 0
0.214286 1.625 0
0.107143 1.625 0
0.107143 1.5 0
0.214286 1.625 0
0.214286 1.5 0
0.214286 1.75 0
0.214286 1.625 0
0.321429 1.75 0
0.321429 1.625 0
0.214286 1.625 0
0.214286 1.5 0
0.321429 1.625 0
0.321429 1.5 0
0.321429 1.75 0
0.321429 1.625 0
0.428571 1.75 0
0.428571 1.625 0
0.321429 1.625 0
0.321429 1.5 0
0.428571 1.625 0
0.428571 1.5 0
0.428571 1.75 0
0.428571 1.625 0
0.535714 1.75 0
0.535714 1.625 0
0.428571 1.625 0
0.428571 1.5 0
0.535714 1.625 0
0.535714 1.5 0
0.535714 1.75 0
0.535714 1.625 0
0.642857 1.75 0
0.642857 1.625 0
0.535714 1.625 0
0.535714 1.5 0
0.642857 1.625 0
0.642857 1.5 0
0.642857 1.75 0
0.642857 1.625 0
0.75 1.75 0
0.75 1.625 0
0.642857 1.625 0
0.642857 1.5 0
0.75 1.625 0
0.75 1.5 0
0.75 1.75 0
0.75 1.625 0
0.857143 1.75 0
0.857143 1.625 0
0.75 1.625 0
0.75 1.5 0
0.857143 1.625 0
0.857143 1.5 0
0.857143 1.75 0
0.857143 1.625 0
0.964286 1.75 0
0.964286 1.625 0
0.857143 1.625 0
0.857143 1.5 0
0.964286 1.625 0
0.964286 1.5 0
0.964286 1.75 0
0.964286 1.625 0
1.07143 1.75 0
1.07143 1.625 0
0.964286 1.625 0
0.964286 1.5 0
1.07143 1.625 0
1.07143 1.5 0
1.07143 1.75 0
1.07143 1.625 0
1.17857 1.75 0
1.17857 1.625 0
1.07143 1.625 0
1.07143 1.5 0
1.17857 1.625 0
1.17857 1.5 0
1.17857 1.75 0
1.17857 1.625 0
1.28571 1.75 0
1.28571 1.625 0
1.17857 1.625 0
1.17857 1.5 0
1.28571 1.625 0
1.28571 1.5 0
1.28571 1.75 0
1.28571 1.625 0
1.39286 1.75 0
1.39286 1.625 0
1.28571 1.625 0
1.28571 1.5 0
1.39286 1.625 0
1.39286 1.5 0
1.39286 1.75 0
1.39286 1.625 0
1.5 1.75 0
1.5 1.625 0
1.39286 1.625 0
1.39286 1.5 0
1.5 1.625 0
1.5 1.5 0
1.5 1.75 0
1.5 1.625 0
1.60714 1.75 0
1.60714 1.625 0
1.5 1.625 0
1.5 1.5 0
1.60714 1.625 0
1.60714 1.5 0
1.60714 1.75 0
1.60714 1.625 0
1.71429 1.75 0
1.71429 1.625 0
1.60714 1.625 0
1.60714 1.5 0
1.71429 1.625 0
1.71429 1.5 0
1.71429 1.75 0
1.71429 1.625 0
1.82143 1.75 0
1.82143 1.625 0
1.71429 1.625 0
1.71429 1.5 0
1.82143 1.625 0
1.82143 1.5 0
1.82143 1.75 0
1.82143 1.625 0
1.92857 1.75 0
1.92857 1.625 0
1.82143 1.625 0
1.82143 1.5 0
1.92857 1.625 0
1.92857 1.5 0
1.92857 1.75 0
1.92857 1.625 0
2.03571 1.75 0
2.03571 1.625 0
1.92857 1.625 0
1.92857 1.5 0
2.03571 1.625 0
2.03571 1.5 0
2.03571 1.75 0
2.03571 1.625 0
2.14286 1.75 0
2.14286 1.625 0
2.03571 1.625 0
2.03571 1.5 0
2.14286 1.625 0
2.14286 1.5 0
2.14286 1.75 0
2.14286 1.625 0
2.25 1.75 0
2.25 1.625 0
2.14286 1.625 0
2.14286 1.5 0
2.25 1.625 0
2.25 1.5 0
2.25 1.75 0
2.25 1.625 0
2.35714 1.75 0
2.35714 1.625 0
2.25 1.625 0
2.25 1.5 0
2.35714 1.625 0
2.35714 1.5 0
2.35714 1.75 0
2.35714 1.625 0
2.46429 1.75 0
2.46429 1.625 0
2.35714 1.625 0
2.35714 1.5 0
2.46429 1.625 0
2.46429 1.5 0
2.46429 1.75 0
2.46429 1.625 0
2.57143 1.75 0
2.57143 1.625 0
2.46429 1.625 0
2.46429 1.5 0
2.57143 1.625 0
2.57143 1.5 0
0 1.5 0
0 1.375 0
0.107143 1.5 0
0.107143 1.375 0
0 1.375 0
0 1.25 0
0.107143 1.375 0
0.107143 1.25 0
0.107143 1.5 0
0.107143 1.375 0
0.214286 1.5 0
0.214286 1.375 0
0.107143 1.375 0
0.107143 1.25 0
0.214286 1.375 0
0.214286 1.25 0
0.214286 1.5 0
0.214286 1.375 0
0.321429 1.5 0
0.321429 1.375 0
0.214286 1.375 0
0.214286 1.25 0
0.321429 1.375 0
0.321429 1.25 0
0.321429 1.5 0
0.321429 1.375 0
0.428571 1.5 0
0.428571 1.375 0
0.321429 1.375 0
0.321429 1.25 0
0.428571 1.375 0
0.428571 1.25 0
0.428571 1.5 0
0.428571 1.375 0
0.535714 1.5 0
0.535714 1.375 0
0.428571 1.375 0
0.428571 1.25 0
0.535714 1.375 0
0.535714 1.25 0
0.535714 1.5 0
0.535714 1.375 0
0.642857 1.5 0
0.642857 1.375 0
0.535714 1.375 0
0.535714 1.25 0
0.642857 1.375 0
0.642857 1.25 0
0.642857 1.5 0
0.642857 1.375 0
0.75 1.5 0
0.75 1.375 0
0.642857 1.375 0
0.642857 1.25 0
0.75 1.375 0
0.75 1.25 0
0.75 1.5 0
0.75 1.375 0
0.857143 1.5 0
0.857143 1.375 0
0.75 1.375 0
0.75 1.25 0
0.857143 1.375 0
0.857143 1.25 0
0.857143 1.5 0
0.857143 1.375 0
0.964286 1.5 0
0.964286 1.375 0
0.857143 1.375 0
0.857143 1.25 0
0.964286 1.375 0
0.964286 1.25 0
0.964286 1.5 0
0.964286 1.375 0
1.07143 1.5 0
1.07143 1.375 0
0.964286 1.375 0
0.964286 1.25 0
1.07143 1.375 0
1.07143 1.25 0
1.07143 1.5 0
1.07143 1.375 0
1.17857 1.5 0
1.17857 1.375 0
1.07143 1.375 0
1.07143 1.25 0
1.17857 1.375 0
1.17857 1.25 0
1.17857 1.5 0
1.17857 1.375 0
1.28571 1.5 0
1.28571 1.375 0
1.17857 1.375 0
1.17857 1.25 0
1.28571 1.375 0
1.28571 1.25 0
1.28571 1.5 0
1.28571 1.375 0
1.39286 1.5 0
1.39286 1.375 0
1.28571 1.375 0
1.28571 1.25 0
1.39286 1.375 0
1.39286 1.25 0
1.39286 1.5 0
1.39286 1.375 0
1.5 1.5 0
1.5 1.375 0
1.39286 1.375 0
1.39286 1.25 0
1.5 1.375 0
1.5 1.25 0
1.5 1.5 0
1.5 1.375 0
1.60714 1.5 0
1.60714 1.375 0
1.5 1.375 0
1.5 1.25 0
1.60714 1.375 0
1.60714 1.25 0
1.60714 1.5 0
1.60714 1.375 0
1.71429 1.5 0
1.71429 1.375 0
1.60714 1.375 0
1.60714 1.25 0
1.71429 1.375 0
1.71429 1.25 0
1.71429 1.5 0
1.71429 1.375 0
1.82143 1.5 0
1.82143 1.375 0
1.71429 1.375 0
1.71429 1.25 0
1.82143 1.375 0
1.82143 1.25 0
1.82143 1.5 0
1.82143 1.375 0
1.92857 1.5 0
1.92857 1.375 0
1.82143 1.375 0
1.82143 1.25 0
1.92857 1.375 0
1.92857 1.25 0
1.92857 1.5 0
1.92857 1.375 0
2.03571 1.5 0
2.03571 1.375 0
1.92857 1.375 0
1.92857 1.25 0
2.03571 1.375 0
2.03571 1.25 0
2.03571 1.5 0
2.03571 1.375 0
2.14286 1.5 0
2.14286 1.375 0
2.03571 1.375 0
2.03571 1.25 0
2.14286 1.375 0
2.14286 1.25 0
2.14286 1.5 0
2.14286 1.375 0
2.25 1.5 0
2.25 1.375 0
2.14286 1.375 0
2.14286 1.25 0
2.25 1.375 0
2.25 1.25 0
2.25 1.5 0
2.25 1.375 0
2.35714 1.5 0
2.35714 1.375 0
2.25 1.375 0
2.25 1.25 0
2.35714 1.375 0
2.35714 1.25 0
2.35714 1.5 0
2.35714 1.375 0
2.46429 1.5 0
2.46429 1.375 0
2.35714 1.375 0
2.35714 1.25 0
2.46429 1.375 0
2.46429 1.25 0
2.46429 1.5 0
2.46429 1.375 0
2.57143 1.5 0
2.57143 1.375 0
2.46429 1.375 0
2.46429 1.25 0
2.57143 1.375 0
2.57143 1.25 0
0.214286 2.5 0
0.214286 2.375 0
0.321429 2.5 0
0.321429 2.375 0
0.214286 2.375 0
0.214286 2.25 0
0.321429 2.375 0
0.321429 2.25 0
0.321429 2.5 0
0.321429 2.375 0
0.428571 2.5 0
0.428571 2.375 0
0.321429 2.375 0
0.321429 2.25 0
0.428571 2.375 0
0.428571 2.25 0
0.428571 2.5 0
0.428571 2.375 0
0.535714 2.5 0
0.535714 2.375 0
0.428571 2.375 0
0.428571 2.25 0
0.535714 2.375 0
0.535714 2.25 0
0.535714 2.5 0
0.535714 2.375 0
0.642857 2.5 0
0.642857 2.375 0
0.535714 2.375 0
0.535714 2.25 0
0.642857 2.375 0
0.642857 2.25 0
2.35714 2.5 0
2.35714 2.375 0
2.46429 2.5 0
2.46429 2.375 0
2.35714 2.375 0
2.35714 2.25 0
2.46429 2.375 0
2.46429 2.25 0
2.46429 2.5 0
2.46429 2.375 0
2.57143 2.5 0
2.57143 2.375 0
2.46429 2.375 0
2.46429 2.25 0
2.57143 2.375 0
2.57143 2.25 0
0 0 0
0.107143 0 0
0 0.125 0
0.107143 0.125 0
0.107143 0 0
0.214286 0 0
0.107143 0.125 0
0.214286 0.125 0
0 0.125 0
0.107143 0.125 0
0 0.25 0
0.107143 0.25 0
0.107143 0.125 0
0.214286 0.125 0
0.107143 0.25 0
0.214286 0.25 0
0 0.25 0
0.107143 0.25 0
0 0.375 0
0.107143 0.375 0
0.107143 0.25 0
0.214286 0.25 0
0.107143 0.375 0
0.214286 0.375 0
0 0.375 0
0.107143 0.375 0
0 0.5 0
0.107143 0.5 0
0.107143 0.375 0
0.214286 0.375 0
0.107143 0.5 0
0.214286 0.5 0
0.214286 0 0
0.321429 0 0
0.214286 0.125 0
0.321429 0.125 0
0.321429 0 0
0.428571 0 0
0.321429 0.125 0
0.428571 0.125 0
0.214286 0.125 0
0.321429 0.125 0
0.214286 0.25 0
0.321429 0.25 0
0.321429 0.125 0
0.428571 0.125 0
0.321429 0.25 0
0.428571 0.25 0
0.214286 0.25 0
0.321429 0.25 0
0.214286 0.375 0
0.321429 0.375 0
0.321429 0.25 0
0.428571 0.25 0
0.321429 0.375 0
0.428571 0.375 0
0.214286 0.375 0
0.321429 0.375 0
0.214286 0.5 0
0.321429 0.5 0
0.321429 0.375 0
0.428571 0.375 0
0.321429 0.5 0
0.428571 0.5 0
0.428571 0 0
0.535714 0 0
0.428571 0.125 0
0.535714 0.125 0
0.535714 0 0
0.642857 0 0
0.535714 0.125 0
0.642857 0.125 0
0.428571 0.125 0
0.535714 0.125 0
0.428571 0.25 0
0.535714 0.25 0
0.535714 0.125 0
0.642857 0.125 0
0.535714 0.25 0
0.642857 0.25 0
0.428571 0.25 0
0.535714 0.25 0
0.428571 0.375 0
0.535714 0.375 0
0.535714 0.25 0
0.642857 0.25 0
0.535714 0.375 0
0.642857 0.375 0
0.428571 0.375 0
0.535714 0.375 0
0.428571 0.5 0
0.535714 0.5 0
0.535714 0.375 0
0.642857 0.375 0
0.535714 0.5 0
0.642857 0.5 0
0.642857 0 0
0.75 0 0
0.642857 0.125 0
0.75 0.125 0
0.75 0 0
0.857143 0 0
0.75 0.125 0
0.857143 0.125 0
0.642857 0.125 0
0.75 0.125 0
0.642857 0.25 0
0.75 0.25 0
0.75 0.125 0
0.857143 0.125 0
0.75 0.25 0
0.857143 0.25 0
0.642857 0.25 0
0.75 0.25 0
0.642857 0.375 0
0.75 0.375 0
0.75 0.25 0
0.857143 0.25 0
0.75 0.375 0
0.857143 0.375 0
0.642857 0.375 0
0.75 0.375 0
0.642857 0.5 0
0.75 0.5 0
0.75 0.375 0
0.857143 0.375 0
0.75 0.5 0
0.857143 0.5 0
0.857143 0 0
0.964286 0 0
0.857143 0.125 0
0.964286 0.125 0
0.964286 0 0
1.07143 0 0
0.964286 0.125 0
1.07143 0.125 0
0.857143 0.125 0
0.964286 0.125 0
0.857143 0.25 0
0.964286 0.25 0
0.964286 0.125 0
1.07143 0.125 0
0.964286 0.25 0
1.07143 0.25 0
0.857143 0.25 0
0.964286 0.25 0
0.857143 0.375 0
0.964286 0.375 0
0.964286 0.25 0
1.07143 0.25 0
0.964286 0.375 0
1.07143 0.375 0
0.857143 0.375 0
0.964286 0.375 0
0.857143 0.5 0
0.964286 0.5 0
0.964286 0.375 0
1.07143 0.375 0
0.964286 0.5 0
1.07143 0.5 0
1.07143 0 0
1.17857 0 0
1.07143 0.125 0
1.17857 0.125 0
1.17857 0 0
1.28571 0 0
1.17857 0.125 0
[...]
POINT_DATA 22272
VECTORS velocity double
-0.00079387 3.92927e-05 0
-0.00142194 8.84411e-05 0
-0.00156613 0.00104593 0
-0.00264429 0.00107327 0
-0.00142194 8.84411e-05 0
-0.00203857 6.83604e-05 0
-0.00264429 0.00107327 0
-0.00366155 0.000991303 0
-0.00156613 0.00104593 0
-0.00264429 0.00107327 0
-0.00222583 0.00241714 0
-0.00331767 0.00224274 0
-0.00264429 0.00107327 0
-0.00366155 0.000991303 0
-0.00331767 0.00224274 0
-0.00419639 0.00204245 0
-0.00203857 6.83604e-05 0
-0.00260323 -1.5543e-05 0
-0.00366155 0.000991303 0
-0.00462486 0.000845429 0
-0.00260323 -1.5543e-05 0
-0.00308177 -0.000141682 0
-0.00462486 0.000845429 0
-0.00554634 0.000631216 0
-0.00366155 0.000991303 0
-0.00462486 0.000845429 0
-0.00419639 0.00204245 0
-0.00499116 0.00185345 0
-0.00462486 0.000845429 0
-0.00554634 0.000631216 0
-0.00499116 0.00185345 0
-0.00580825 0.00165873 0
-0.00562892 0.000559303 0
-0.00554861 -0.00400619 0
0.00379692 0.000437575 0
0.00344733 -0.00357157 0
-0.00554861 -0.00400619 0
-0.00578812 -0.00891104 0
0.00344733 -0.00357157 0
0.00243408 -0.00788585 0
0.00379692 0.000437575 0
0.00344733 -0.00357157 0
0.014145 0.000622298 0
0.01337 -0.00244573 0
0.00344733 -0.00357157 0
0.00243408 -0.00788585 0
0.01337 -0.00244573 0
0.0115086 -0.00565912 0
0.1875 0 0
0.234375 0 0
0.187464 0.000117338 0
0.234354 4.85576e-05 0
0.234375 0 0
0.25 0 0
0.234354 4.85576e-05 0
0.249981 -1.07686e-15 0
0.187464 0.000117338 0
0.234354 4.85576e-05 0
0.187383 0.000177759 0
0.234296 8.31953e-05 0
0.234354 4.85576e-05 0
0.249981 -1.07686e-15 0
0.234296 8.31953e-05 0
0.249927 -2.16879e-15 0
0.187383 0.000177759 0
0.234296 8.31953e-05 0
0.187298 0.00020297 0
0.234216 0.00010255 0
0.234296 8.31953e-05 0
0.249927 -2.16879e-15 0
0.234216 0.00010255 0
0.249849 -3.37088e-15 0
0.187298 0.00020297 0
0.234216 0.00010255 0
0.187217 0.000214648 0
0.234126 0.0001121 0
0.234216 0.00010255 0
0.249849 -3.37088e-15 0
0.234126 0.0001121 0
0.249757 -4.49387e-15 0
0.187217 0.000214648 0
0.234126 0.0001121 0
0.187139 0.00022049 0
0.23403 0.000117729 0
0.234126 0.0001121 0
0.249757 -4.49387e-15 0
0.23403 0.000117729 0
0.249657 -5.47843e-15 0
0.187139 0.00022049 0
0.23403 0.000117729 0
0.187063 0.000225761 0
0.233932 0.000121501 0
0.23403 0.000117729 0
0.249657 -5.47843e-15 0
0.233932 0.000121501 0
0.249552 -6.49963e-15 0
0.187063 0.000225761 0
0.233932 0.000121501 0
0.186987 0.000232023 0
0.23383 0.000126534 0
0.233932 0.000121501 0
0.249552 -6.49963e-15 0
0.23383 0.000126534 0
0.249442 -7.45693e-15 0
0.186987 0.000232023 0
0.23383 0.000126534 0
0.18691 0.000243452 0
0.233724 0.000132618 0
0.23383 0.000126534 0
0.249442 -7.45693e-15 0
0.233724 0.000132618 0
0.249328 -8.61e-15 0
0.18691 0.000243452 0
0.233724 0.000132618 0
0.18683 0.000260528 0
0.233611 0.000142609 0
0.233724 0.000132618 0
0.249328 -8.61e-15 0
0.233611 0.000142609 0
0.249207 -9.78473e-15 0
0.18683 0.000260528 0
0.233611 0.000142609 0
0.186741 0.000285191 0
0.233489 0.0001535 0
0.233611 0.000142609 0
0.249207 -9.78473e-15 0
0.233489 0.0001535 0
0.249077 -1.11732e-14 0
0.186741 0.000285191 0
0.233489 0.0001535 0
0.186636 0.00031244 0
0.233357 0.000164924 0
0.233489 0.0001535 0
0.249077 -1.11732e-14 0
0.233357 0.000164924 0
0.248938 -1.23442e-14 0
0.186636 0.00031244 0
0.233357 0.000164924 0
0.186513 0.000333687 0
0.233216 0.000171031 0
0.233357 0.000164924 0
0.248938 -1.23442e-14 0
0.233216 0.000171031 0
0.248793 -1.37834e-14 0
0.186513 0.000333687 0
0.233216 0.000171031 0
0.186376 0.000332783 0
0.233073 0.000165962 0
0.233216 0.000171031 0
0.248793 -1.37834e-14 0
0.233073 0.000165962 0
0.248649 -1.49366e-14 0
0.186376 0.000332783 0
0.233073 0.000165962 0
0.186239 0.00029369 0
0.232941 0.000142818 0
0.233073 0.000165962 0
0.248649 -1.49366e-14 0
0.232941 0.000142818 0
0.248519 -1.59244e-14 0
0.186239 0.00029369 0
0.232941 0.000142818 0
0.186125 0.000207451 0
0.232836 0.000101516 0
0.232941 0.000142818 0
0.248519 -1.59244e-14 0
0.232836 0.000101516 0
0.248415 -1.65735e-14 0
0.186125 0.000207451 0
0.232836 0.000101516 0
0.186065 8.74828e-05 0
0.232774 4.78405e-05 0
0.232836 0.000101516 0
0.248415 -1.65735e-14 0
0.232774 4.78405e-05 0
0.248351 -1.69719e-14 0
0.186065 8.74828e-05 0
0.232774 4.78405e-05 0
0.186075 -3.48195e-05 0
0.23276 -2.34694e-06 0
0.232774 4.78405e-05 0
0.248351 -1.69719e-14 0
0.23276 -2.34694e-06 0
0.248328 -1.70492e-14 0
0.186075 -3.48195e-05 0
0.23276 -2.34694e-06 0
0.186151 -0.000111844 0
0.232784 -3.17221e-05 0
0.23276 -2.34694e-06 0
0.248328 -1.70492e-14 0
0.232784 -3.17221e-05 0
0.248334 -1.7294e-14 0
0.186151 -0.000111844 0
0.232784 -3.17221e-05 0
0.186259 -0.000106611 0
0.23282 -2.1202e-05 0
0.232784 -3.17221e-05 0
0.248334 -1.7294e-14 0
0.23282 -2.1202e-05 0
0.248346 -1.76408e-14 0
0.186259 -0.000106611 0
0.23282 -2.1202e-05 0
0.186356 1.21468e-06 0
0.232829 3.54159e-05 0
0.23282 -2.1202e-05 0
0.248346 -1.76408e-14 0
0.232829 3.54159e-05 0
0.248326 -1.84375e-14 0
0.186356 1.21468e-06 0
0.232829 3.54159e-05 0
0.186392 0.000205669 0
0.232771 0.00014212 0
0.232829 3.54159e-05 0
0.248326 -1.84375e-14 0
0.232771 0.00014212 0
0.248235 -1.96508e-14 0
0.186392 0.000205669 0
0.232771 0.00014212 0
0.186329 0.000496562 0
0.232604 0.000288546 0
0.232771 0.00014212 0
0.248235 -1.96508e-14 0
0.232604 0.000288546 0
0.248035 -2.13597e-14 0
0.186329 0.000496562 0
0.232604 0.000288546 0
0.186132 0.000850802 0
0.232296 0.000468642 0
0.232604 0.000288546 0
0.248035 -2.13597e-14 0
0.232296 0.000468642 0
0.247696 -2.29354e-14 0
0.186132 0.000850802 0
0.232296 0.000468642 0
0.185768 0.00124722 0
0.231828 0.000655011 0
0.232296 0.000468642 0
0.247696 -2.29354e-14 0
0.231828 0.000655011 0
0.247203 -2.45153e-14 0
0.25 0 0
0.234375 0 0
0.249981 -1.07686e-15 0
0.234354 -4.85576e-05 0
0.234375 0 0
0.1875 0 0
0.234354 -4.85576e-05 0
0.187464 -0.000117338 0
0.249981 -1.07686e-15 0
0.234354 -4.85576e-05 0
0.249927 -2.16879e-15 0
0.234296 -8.31953e-05 0
0.234354 -4.85576e-05 0
0.187464 -0.000117338 0
0.234296 -8.31953e-05 0
0.187383 -0.000177759 0
0.249927 -2.16879e-15 0
0.234296 -8.31953e-05 0
0.249849 -3.37088e-15 0
0.234216 -0.00010255 0
0.234296 -8.31953e-05 0
0.187383 -0.000177759 0
0.234216 -0.00010255 0
0.187298 -0.00020297 0
0.249849 -3.37088e-15 0
0.234216 -0.00010255 0
0.249757 -4.49387e-15 0
0.234126 -0.0001121 0
0.234216 -0.00010255 0
0.187298 -0.00020297 0
0.234126 -0.0001121 0
0.187217 -0.000214648 0
0.249757 -4.49387e-15 0
0.234126 -0.0001121 0
0.249657 -5.47843e-15 0
0.23403 -0.000117729 0
0.234126 -0.0001121 0
0.187217 -0.000214648 0
0.23403 -0.000117729 0
0.187139 -0.00022049 0
0.249657 -5.47843e-15 0
0.23403 -0.000117729 0
0.249552 -6.49963e-15 0
0.233932 -0.000121501 0
0.23403 -0.000117729 0
0.187139 -0.00022049 0
0.233932 -0.000121501 0
0.187063 -0.000225761 0
0.249552 -6.49963e-15 0
0.233932 -0.000121501 0
0.249442 -7.45693e-15 0
0.23383 -0.000126534 0
0.233932 -0.000121501 0
0.187063 -0.000225761 0
0.23383 -0.000126534 0
0.186987 -0.000232023 0
0.249442 -7.45693e-15 0
0.23383 -0.000126534 0
0.249328 -8.61e-15 0
0.233724 -0.000132618 0
0.23383 -0.000126534 0
0.186987 -0.000232023 0
0.233724 -0.000132618 0
0.18691 -0.000243452 0
0.249328 -8.61e-15 0
0.233724 -0.000132618 0
0.249207 -9.78473e-15 0
0.233611 -0.000142609 0
0.233724 -0.000132618 0
0.18691 -0.000243452 0
0.233611 -0.000142609 0
0.18683 -0.000260528 0
0.249207 -9.78473e-15 0
0.233611 -0.000142609 0
0.249077 -1.11732e-14 0
0.233489 -0.0001535 0
0.233611 -0.000142609 0
0.18683 -0.000260528 0
0.233489 -0.0001535 0
0.186741 -0.000285191 0
0.249077 -1.11732e-14 0
0.233489 -0.0001535 0
0.248938 -1.23442e-14 0
0.233357 -0.000164924 0
0.233489 -0.0001535 0
0.186741 -0.000285191 0
0.233357 -0.000164924 0
0.186636 -0.00031244 0
0.248938 -1.23442e-14 0
0.233357 -0.000164924 0
0.248793 -1.37834e-14 0
0.233216 -0.000171031 0
0.233357 -0.000164924 0
0.186636 -0.00031244 0
0.233216 -0.000171031 0
0.186513 -0.000333687 0
0.248793 -1.37834e-14 0
0.233216 -0.000171031 0
0.248649 -1.49366e-14 0
0.233073 -0.000165962 0
0.233216 -0.000171031 0
0.186513 -0.000333687 0
0.233073 -0.000165962 0
0.186376 -0.000332783 0
0.248649 -1.49366e-14 0
0.233073 -0.000165962 0
0.248519 -1.59244e-14 0
0.232941 -0.000142818 0
0.233073 -0.000165962 0
0.186376 -0.000332783 0
0.232941 -0.000142818 0
0.186239 -0.00029369 0
0.248519 -1.59244e-14 0
0.232941 -0.000142818 0
0.248415 -1.65735e-14 0
0.232836 -0.000101516 0
0.232941 -0.000142818 0
0.186239 -0.00029369 0
0.232836 -0.000101516 0
0.186125 -0.000207451 0
0.248415 -1.65735e-14 0
0.232836 -0.000101516 0
0.248351 -1.69719e-14 0
0.232774 -4.78405e-05 0
0.232836 -0.000101516 0
0.186125 -0.000207451 0
0.232774 -4.78405e-05 0
0.186065 -8.74828e-05 0
0.248351 -1.69719e-14 0
0.232774 -4.78405e-05 0
0.248328 -1.70492e-14 0
0.23276 2.34694e-06 0
0.232774 -4.78405e-05 0
0.186065 -8.74828e-05 0
0.23276 2.34694e-06 0
0.186075 3.48195e-05 0
0.248328 -1.70492e-14 0
0.23276 2.34694e-06 0
0.248334 -1.7294e-14 0
0.232784 3.17221e-05 0
0.23276 2.34694e-06 0
0.186075 3.48195e-05 0
0.232784 3.17221e-05 0
0.186151 0.000111844 0
0.248334 -1.7294e-14 0
0.232784 3.17221e-05 0
0.248346 -1.76408e-14 0
0.23282 2.1202e-05 0
0.232784 3.17221e-05 0
0.186151 0.000111844 0
0.23282 2.1202e-05 0
0.186259 0.000106611 0
0.248346 -1.76408e-14 0
0.23282 2.1202e-05 0
0.248326 -1.84375e-14 0
0.232829 -3.54159e-05 0
0.23282 2.1202e-05 0
0.186259 0.000106611 0
0.232829 -3.54159e-05 0
0.186356 -1.21468e-06 0
0.248326 -1.84375e-14 0
0.232829 -3.54159e-05 0
0.248235 -1.96508e-14 0
0.232771 -0.00014212 0
0.232829 -3.54159e-05 0
0.186356 -1.21468e-06 0
0.232771 -0.00014212 0
0.186392 -0.000205669 0
0.248235 -1.96508e-14 0
0.232771 -0.00014212 0
0.248035 -2.13597e-14 0
0.232604 -0.000288546 0
0.232771 -0.00014212 0
0.186392 -0.000205669 0
0.232604 -0.000288546 0
0.186329 -0.000496562 0
0.248035 -2.13597e-14 0
0.232604 -0.000288546 0
0.247696 -2.29354e-14 0
0.232296 -0.000468642 0
0.232604 -0.000288546 0
0.186329 -0.000496562 0
0.232296 -0.000468642 0
0.186132 -0.000850802 0
0.247696 -2.29354e-14 0
0.232296 -0.000468642 0
0.247203 -2.45153e-14 0
0.231828 -0.000655011 0
0.232296 -0.000468642 0
0.186132 -0.000850802 0
0.231828 -0.000655011 0
0.185768 -0.00124722 0
-0.00079387 -3.92927e-05 0
-0.00156613 -0.00104593 0
-0.00142194 -8.84411e-05 0
-0.00264429 -0.00107327 0
-0.00156613 -0.00104593 0
-0.00222583 -0.00241714 0
-0.00264429 -0.00107327 0
-0.00331767 -0.00224274 0
-0.00142194 -8.84411e-05 0
-0.00264429 -0.00107327 0
-0.00203857 -6.83604e-05 0
-0.00366155 -0.000991303 0
-0.00264429 -0.00107327 0
-0.00331767 -0.00224274 0
-0.00366155 -0.000991303 0
-0.00419639 -0.00204245 0
-0.00203857 -6.83604e-05 0
-0.00366155 -0.000991303 0
-0.00260323 1.5543e-05 0
-0.00462486 -0.000845429 0
-0.00366155 -0.000991303 0
-0.00419639 -0.00204245 0
-0.00462486 -0.000845429 0
-0.00499116 -0.00185345 0
-0.00260323 1.5543e-05 0
-0.00462486 -0.000845429 0
-0.00308177 0.000141682 0
-0.00554634 -0.000631216 0
-0.00462486 -0.000845429 0
-0.00499116 -0.00185345 0
-0.00554634 -0.000631216 0
-0.00580825 -0.00165873 0
-0.00562892 -0.000559303 0
0.00379692 -0.000437575 0
-0.00554861 0.00400619 0
0.00344733 0.00357157 0
0.00379692 -0.000437575 0
0.014145 -0.000622298 0
0.00344733 0.00357157 0
0.01337 0.00244573 0
-0.00554861 0.00400619 0
0.00344733 0.00357157 0
-0.00578812 0.00891104 0
0.00243408 0.00788585 0
0.00344733 0.00357157 0
0.01337 0.00244573 0
0.00243408 0.00788585 0
0.0115086 0.00565912 0
0 0 0
0 0 0
0 0 0
8.12406e-05 -0.000107026 0
0 0 0
0 0 0
8.12406e-05 -0.000107026 0
0.000283087 -0.00014578 0
0 0 0
8.12406e-05 -0.000107026 0
0 0 0
7.83635e-05 -0.000303207 0
8.12406e-05 -0.000107026 0
0.000283087 -0.00014578 0
7.83635e-05 -0.000303207 0
0.000242157 -0.000385232 0
0 0 0
7.83635e-05 -0.000303207 0
0 0 0
-2.9572e-05 -0.000368722 0
7.83635e-05 -0.000303207 0
0.000242157 -0.000385232 0
-2.9572e-05 -0.000368722 0
-0.000129124 -0.000403275 0
0 0 0
-2.9572e-05 -0.000368722 0
0 0 0
-0.000242606 -5.9535e-05 0
-2.9572e-05 -0.000368722 0
-0.000129124 -0.000403275 0
-0.000242606 -5.9535e-05 0
-0.00079387 3.92927e-05 0
0 0 0
0 0 0
0.000283087 -0.00014578 0
0.000518102 -0.00014555 0
0 0 0
0 0 0
0.000518102 -0.00014555 0
0.000745536 -0.000136372 0
0.000283087 -0.00014578 0
0.000518102 -0.00014555 0
0.000242157 -0.000385232 0
0.000403039 -0.000377203 0
0.000518102 -0.00014555 0
0.000745536 -0.000136372 0
0.000403039 -0.000377203 0
0.000556241 -0.00035734 0
0.000242157 -0.000385232 0
0.000403039 -0.000377203 0
-0.000129124 -0.000403275 0
-0.000283633 -0.000374783 0
0.000403039 -0.000377203 0
0.000556241 -0.00035734 0
-0.000283633 -0.000374783 0
-0.000439994 -0.000363606 0
-0.000129124 -0.000403275 0
-0.000283633 -0.000374783 0
-0.00079387 3.92927e-05 0
-0.00142194 8.84411e-05 0
-0.000283633 -0.000374783 0
-0.000439994 -0.000363606 0
-0.00142194 8.84411e-05 0
-0.00203857 6.83604e-05 0
0 0 0
0 0 0
0.000745536 -0.000136372 0
0.000959558 -0.000129135 0
0 0 0
0 0 0
0.000959558 -0.000129135 0
0.00116233 -0.000122168 0
0.000745536 -0.000136372 0
0.000959558 -0.000129135 0
0.000556241 -0.00035734 0
0.000711785 -0.000347109 0
0.000959558 -0.000129135 0
0.00116233 -0.000122168 0
0.000711785 -0.000347109 0
0.000878556 -0.000342053 0
0.000556241 -0.00035734 0
0.000711785 -0.000347109 0
-0.000439994 -0.000363606 0
-0.000565655 -0.00038258 0
0.000711785 -0.000347109 0
0.000878556 -0.000342053 0
-0.000565655 -0.00038258 0
-0.000642875 -0.000417089 0
-0.000439994 -0.000363606 0
-0.000565655 -0.00038258 0
-0.00203857 6.83604e-05 0
-0.00260323 -1.5543e-05 0
-0.000565655 -0.00038258 0
-0.000642875 -0.000417089 0
-0.00260323 -1.5543e-05 0
-0.00308177 -0.000141682 0
0 0 0
0 0 0
0.00116233 -0.000122168 0
0.00135 -0.000110064 0
0 0 0
0 0 0
0.00135 -0.000110064 0
0.00150902 -8.72049e-05 0
0.00116233 -0.000122168 0
0.00135 -0.000110064 0
0.000878556 -0.000342053 0
0.00105873 -0.000324574 0
0.00135 -0.000110064 0
0.00150902 -8.72049e-05 0
0.00105873 -0.000324574 0
0.00124346 -0.000277417 0
0.000878556 -0.000342053 0
0.00105873 -0.000324574 0
-0.000642875 -0.000417089 0
-0.000653301 -0.000452381 0
0.00105873 -0.000324574 0
0.00124346 -0.000277417 0
-0.000653301 -0.000452381 0
-0.000581638 -0.000452198 0
-0.000642875 -0.000417089 0
-0.000653301 -0.000452381 0
-0.00308177 -0.000141682 0
-0.00345358 -0.000287306 0
-0.000653301 -0.000452381 0
-0.000581638 -0.000452198 0
-0.00345358 -0.000287306 0
-0.00368403 -0.000436788 0
0 0 0
0 0 0
0.00150902 -8.72049e-05 0
0.00161972 -5.20476e-05 0
0 0 0
0 0 0
0.00161972 -5.20476e-05 0
0.00166378 -7.93493e-06 0
0.00150902 -8.72049e-05 0
0.00161972 -5.20476e-05 0
0.00124346 -0.000277417 0
0.00141255 -0.000190213 0
0.00161972 -5.20476e-05 0
0.00166378 -7.93493e-06 0
0.00141255 -0.000190213 0
0.00153695 -6.6604e-05 0
0.00124346 -0.000277417 0
0.00141255 -0.000190213 0
-0.000581638 -0.000452198 0
-0.000433391 -0.000387597 0
0.00141255 -0.000190213 0
0.00153695 -6.6604e-05 0
-0.000433391 -0.000387597 0
-0.000237136 -0.000243695 0
-0.000581638 -0.000452198 0
-0.000433391 -0.000387597 0
-0.00368403 -0.000436788 0
-0.00372628 -0.000530498 0
-0.000433391 -0.000387597 0
-0.000237136 -0.000243695 0
-0.00372628 -0.000530498 0
-0.00357252 -0.00051183 0
0 0 0
0 0 0
0.00166378 -7.93493e-06 0
0.00163292 3.69396e-05 0
0 0 0
0 0 0
0.00163292 3.69396e-05 0
0.00153563 7.10663e-05 0
0.00166378 -7.93493e-06 0
0.00163292 3.69396e-05 0
0.00153695 -6.6604e-05 0
0.00158492 7.7228e-05 0
0.00163292 3.69396e-05 0
0.00153563 7.10663e-05 0
0.00158492 7.7228e-05 0
0.00152246 0.000220641 0
0.00153695 -6.6604e-05 0
0.00158492 7.7228e-05 0
-0.000237136 -0.000243695 0
-5.06101e-05 -1.78034e-05 0
0.00158492 7.7228e-05 0
0.00152246 0.000220641 0
-5.06101e-05 -1.78034e-05 0
3.21275e-05 0.000295371 0
-0.000237136 -0.000243695 0
-5.06101e-05 -1.78034e-05 0
-0.00357252 -0.00051183 0
-0.00327914 -0.000310542 0
-5.06101e-05 -1.78034e-05 0
3.21275e-05 0.000295371 0
-0.00327914 -0.000310542 0
-0.0029921 0.000157615 0
0 0 0
0 0 0
0.00153563 7.10663e-05 0
0.00139796 8.61646e-05 0
0 0 0
0 0 0
0.00139796 8.61646e-05 0
0.00124585 8.9564e-05 0
0.00153563 7.10663e-05 0
0.00139796 8.61646e-05 0
0.00152246 0.000220641 0
0.00130264 0.000359417 0
0.00139796 8.61646e-05 0
0.00124585 8.9564e-05 0
0.00130264 0.000359417 0
0.000794786 0.00059657 0
0.00152246 0.000220641 0
0.00130264 0.000359417 0
3.21275e-05 0.000295371 0
-0.000152652 0.00076247 0
0.00130264 0.000359417 0
0.000794786 0.00059657 0
-0.000152652 0.00076247 0
-0.000911481 0.00168054 0
3.21275e-05 0.000295371 0
-0.000152652 0.00076247 0
-0.0029921 0.000157615 0
-0.00294975 0.00106953 0
-0.000152652 0.00076247 0
-0.000911481 0.00168054 0
-0.00294975 0.00106953 0
-0.00348627 0.00289078 0
0 0 0
0 0 0
0 0 0
8.12406e-05 0.000107026 0
0 0 0
0 0 0
8.12406e-05 0.000107026 0
7.83635e-05 0.000303207 0
0 0 0
8.12406e-05 0.000107026 0
0 0 0
0.000283087 0.00014578 0
8.12406e-05 0.000107026 0
7.83635e-05 0.000303207 0
0.000283087 0.00014578 0
0.000242157 0.000385232 0
0 0 0
0.000283087 0.00014578 0
0 0 0
0.000518102 0.00014555 0
0.000283087 0.00014578 0
0.000242157 0.000385232 0
0.000518102 0.00014555 0
0.000403039 0.000377203 0
0 0 0
0.000518102 0.00014555 0
0 0 0
0.000745536 0.000136372 0
0.000518102 0.00014555 0
0.000403039 0.000377203 0
0.000745536 0.000136372 0
0.000556241 0.00035734 0
0 0 0
0.000745536 0.000136372 0
0 0 0
0.000959558 0.000129135 0
0.000745536 0.000136372 0
0.000556241 0.00035734 0
0.000959558 0.000129135 0
0.000711785 0.000347109 0
0 0 0
0.000959558 0.000129135 0
0 0 0
0.00116233 0.000122168 0
0.000959558 0.000129135 0
0.000711785 0.000347109 0
0.00116233 0.000122168 0
0.000878556 0.000342053 0
0 0 0
0.00116233 0.000122168 0
0 0 0
0.00135 0.000110064 0
0.00116233 0.000122168 0
0.000878556 0.000342053 0
0.00135 0.000110064 0
0.00105873 0.000324574 0
0 0 0
0.00135 0.000110064 0
0 0 0
0.00150902 8.72049e-05 0
0.00135 0.000110064 0
0.00105873 0.000324574 0
0.00150902 8.72049e-05 0
0.00124346 0.000277417 0
0 0 0
0.00150902 8.72049e-05 0
0 0 0
0.00161972 5.20476e-05 0
0.00150902 8.72049e-05 0
0.00124346 0.000277417 0
0.00161972 5.20476e-05 0
0.00141255 0.000190213 0
0 0 0
0.00161972 5.20476e-05 0
0 0 0
0.00166378 7.93493e-06 0
0.00161972 5.20476e-05 0
0.00141255 0.000190213 0
0.00166378 7.93493e-06 0
0.00153695 6.6604e-05 0
0 0 0
0.00166378 7.93493e-06 0
0 0 0
0.00163292 -3.69396e-05 0
0.00166378 7.93493e-06 0
0.00153695 6.6604e-05 0
0.00163292 -3.69396e-05 0
0.00158492 -7.7228e-05 0
0 0 0
0.00163292 -3.69396e-05 0
0 0 0
0.00153563 -7.10663e-05 0
0.00163292 -3.69396e-05 0
0.00158492 -7.7228e-05 0
0.00153563 -7.10663e-05 0
0.00152246 -0.000220641 0
0 0 0
0.00153563 -7.10663e-05 0
0 0 0
0.00139796 -8.61646e-05 0
0.00153563 -7.10663e-05 0
0.00152246 -0.000220641 0
0.00139796 -8.61646e-05 0
0.00130264 -0.000359417 0
0 0 0
0.00139796 -8.61646e-05 0
0 0 0
0.00124585 -8.9564e-05 0
0.00139796 -8.61646e-05 0
0.00130264 -0.000359417 0
0.00124585 -8.9564e-05 0
0.000794786 -0.00059657 0
0 0 0
0 0 0
7.83635e-05 0.000303207 0
-2.9572e-05 0.000368722 0
0 0 0
0 0 0
-2.9572e-05 0.000368722 0
-0.000242606 5.9535e-05 0
7.83635e-05 0.000303207 0
-2.9572e-05 0.000368722 0
0.000242157 0.000385232 0
-0.000129124 0.000403275 0
-2.9572e-05 0.000368722 0
-0.000242606 5.9535e-05 0
-0.000129124 0.000403275 0
-0.00079387 -3.92927e-05 0
0.000242157 0.000385232 0
-0.000129124 0.000403275 0
0.000403039 0.000377203 0
-0.000283633 0.000374783 0
-0.000129124 0.000403275 0
-0.00079387 -3.92927e-05 0
-0.000283633 0.000374783 0
-0.00142194 -8.84411e-05 0
0.000403039 0.000377203 0
-0.000283633 0.000374783 0
0.000556241 0.00035734 0
-0.000439994 0.000363606 0
-0.000283633 0.000374783 0
-0.00142194 -8.84411e-05 0
-0.000439994 0.000363606 0
-0.00203857 -6.83604e-05 0
0.000556241 0.00035734 0
-0.000439994 0.000363606 0
0.000711785 0.000347109 0
-0.000565655 0.00038258 0
-0.000439994 0.000363606 0
-0.00203857 -6.83604e-05 0
-0.000565655 0.00038258 0
-0.00260323 1.5543e-05 0
0.000711785 0.000347109 0
-0.000565655 0.00038258 0
0.000878556 0.000342053 0
-0.000642875 0.000417089 0
-0.000565655 0.00038258 0
-0.00260323 1.5543e-05 0
-0.000642875 0.000417089 0
-0.00308177 0.000141682 0
0.000878556 0.000342053 0
-0.000642875 0.000417089 0