# vtk DataFile Version 3.0
#This file was generated by the deal.II library on 2026/3/26 at 14:58:09
ASCII
DATASET UNSTRUCTURED_GRID

POINTS 1296 double
0 0 0
0.214286 0 0
0 0.25 0
0.214286 0.25 0
0 0.25 0
0.214286 0.25 0
0 0.5 0
0.214286 0.5 0
0 0.5 0
0.214286 0.5 0
0 0.75 0
0.214286 0.75 0
0.214286 0 0
0.428571 0 0
0.214286 0.25 0
0.428571 0.25 0
0.214286 0.25 0
0.428571 0.25 0
0.214286 0.5 0
0.428571 0.5 0
0.214286 0.5 0
0.428571 0.5 0
0.214286 0.75 0
0.428571 0.75 0
0.428571 0 0
0.642857 0 0
0.428571 0.25 0
0.642857 0.25 0
0.428571 0.25 0
0.642857 0.25 0
0.428571 0.5 0
0.642857 0.5 0
0.428571 0.5 0
0.642857 0.5 0
0.428571 0.75 0
0.642857 0.75 0
0.642857 0 0
0.857143 0 0
0.642857 0.25 0
0.857143 0.25 0
0.642857 0.25 0
0.857143 0.25 0
0.642857 0.5 0
0.857143 0.5 0
0.642857 0.5 0
0.857143 0.5 0
0.642857 0.75 0
0.857143 0.75 0
0.857143 0 0
1.07143 0 0
0.857143 0.25 0
1.07143 0.25 0
0.857143 0.25 0
1.07143 0.25 0
0.857143 0.5 0
1.07143 0.5 0
0.857143 0.5 0
1.07143 0.5 0
0.857143 0.75 0
1.07143 0.75 0
1.07143 0 0
1.28571 0 0
1.07143 0.25 0
1.28571 0.25 0
1.07143 0.25 0
1.28571 0.25 0
1.07143 0.5 0
1.28571 0.5 0
1.07143 0.5 0
1.28571 0.5 0
1.07143 0.75 0
1.28571 0.75 0
1.28571 0 0
1.5 0 0
1.28571 0.25 0
1.5 0.25 0
1.28571 0.25 0
1.5 0.25 0
1.28571 0.5 0
1.5 0.5 0
1.28571 0.5 0
1.5 0.5 0
1.28571 0.75 0
1.5 0.75 0
1.28571 0.75 0
1.5 0.75 0
1.28571 1 0
1.5 1 0
1.5 0 0
1.71429 0 0
1.5 0.25 0
1.71429 0.25 0
1.5 0.25 0
1.71429 0.25 0
1.5 0.5 0
1.71429 0.5 0
1.5 0.5 0
1.71429 0.5 0
1.5 0.75 0
1.71429 0.75 0
1.71429 0 0
1.92857 0 0
1.71429 0.25 0
1.92857 0.25 0
1.71429 0.25 0
1.92857 0.25 0
1.71429 0.5 0
1.92857 0.5 0
1.71429 0.5 0
1.92857 0.5 0
1.71429 0.75 0
1.92857 0.75 0
1.92857 0 0
2.14286 0 0
1.92857 0.25 0
2.14286 0.25 0
1.92857 0.25 0
2.14286 0.25 0
1.92857 0.5 0
2.14286 0.5 0
1.92857 0.5 0
2.14286 0.5 0
1.92857 0.75 0
2.14286 0.75 0
2.14286 0 0
2.35714 0 0
2.14286 0.25 0
2.35714 0.25 0
2.14286 0.25 0
2.35714 0.25 0
2.14286 0.5 0
2.35714 0.5 0
2.14286 0.5 0
2.35714 0.5 0
2.14286 0.75 0
2.35714 0.75 0
2.35714 0 0
2.57143 0 0
2.35714 0.25 0
2.57143 0.25 0
2.35714 0.25 0
2.57143 0.25 0
2.35714 0.5 0
2.57143 0.5 0
2.35714 0.5 0
2.57143 0.5 0
2.35714 0.75 0
2.57143 0.75 0
2.57143 0 0
2.78571 0 0
2.57143 0.25 0
2.78571 0.25 0
2.57143 0.25 0
2.78571 0.25 0
2.57143 0.5 0
2.78571 0.5 0
2.57143 0.5 0
2.78571 0.5 0
2.57143 0.75 0
2.78571 0.75 0
2.78571 0 0
3 0 0
2.78571 0.25 0
3 0.25 0
2.78571 0.25 0
3 0.25 0
2.78571 0.5 0
3 0.5 0
2.78571 0.5 0
3 0.5 0
2.78571 0.75 0
3 0.75 0
1.28571 2 0
1.28571 1.75 0
1.5 2 0
1.5 1.75 0
0 1.75 0
0 1.5 0
0.214286 1.75 0
0.214286 1.5 0
0.214286 1.75 0
0.214286 1.5 0
0.428571 1.75 0
0.428571 1.5 0
0.428571 1.75 0
0.428571 1.5 0
0.642857 1.75 0
0.642857 1.5 0
0.642857 1.75 0
0.642857 1.5 0
0.857143 1.75 0
0.857143 1.5 0
0.857143 1.75 0
0.857143 1.5 0
1.07143 1.75 0
1.07143 1.5 0
1.07143 1.75 0
1.07143 1.5 0
1.28571 1.75 0
1.28571 1.5 0
1.28571 1.75 0
1.28571 1.5 0
1.5 1.75 0
1.5 1.5 0
1.5 1.75 0
1.5 1.5 0
1.71429 1.75 0
1.71429 1.5 0
1.71429 1.75 0
1.71429 1.5 0
1.92857 1.75 0
1.92857 1.5 0
1.92857 1.75 0
1.92857 1.5 0
2.14286 1.75 0
2.14286 1.5 0
2.14286 1.75 0
2.14286 1.5 0
2.35714 1.75 0
2.35714 1.5 0
2.35714 1.75 0
2.35714 1.5 0
2.57143 1.75 0
2.57143 1.5 0
2.57143 1.75 0
2.57143 1.5 0
2.78571 1.75 0
2.78571 1.5 0
2.78571 1.75 0
2.78571 1.5 0
3 1.75 0
3 1.5 0
0 1.5 0
0 1.25 0
0.214286 1.5 0
0.214286 1.25 0
0.214286 1.5 0
0.214286 1.25 0
0.428571 1.5 0
0.428571 1.25 0
0.428571 1.5 0
0.428571 1.25 0
0.642857 1.5 0
0.642857 1.25 0
0.642857 1.5 0
0.642857 1.25 0
0.857143 1.5 0
0.857143 1.25 0
0.857143 1.5 0
0.857143 1.25 0
1.07143 1.5 0
1.07143 1.25 0
1.07143 1.5 0
1.07143 1.25 0
1.28571 1.5 0
1.28571 1.25 0
1.28571 1.5 0
1.28571 1.25 0
1.5 1.5 0
1.5 1.25 0
1.5 1.5 0
1.5 1.25 0
1.71429 1.5 0
1.71429 1.25 0
1.71429 1.5 0
1.71429 1.25 0
1.92857 1.5 0
1.92857 1.25 0
1.92857 1.5 0
1.92857 1.25 0
2.14286 1.5 0
2.14286 1.25 0
2.14286 1.5 0
2.14286 1.25 0
2.35714 1.5 0
2.35714 1.25 0
2.35714 1.5 0
2.35714 1.25 0
2.57143 1.5 0
2.57143 1.25 0
2.57143 1.5 0
2.57143 1.25 0
2.78571 1.5 0
2.78571 1.25 0
2.78571 1.5 0
2.78571 1.25 0
3 1.5 0
3 1.25 0
1.28571 1.25 0
1.28571 1 0
1.5 1.25 0
1.5 1 0
0 3 0
0 2.75 0
0.214286 3 0
0.214286 2.75 0
0.214286 3 0
0.214286 2.75 0
0.428571 3 0
0.428571 2.75 0
0.428571 3 0
0.428571 2.75 0
0.642857 3 0
0.642857 2.75 0
0.642857 3 0
0.642857 2.75 0
0.857143 3 0
0.857143 2.75 0
0.857143 3 0
0.857143 2.75 0
1.07143 3 0
1.07143 2.75 0
1.07143 3 0
1.07143 2.75 0
1.28571 3 0
1.28571 2.75 0
1.28571 3 0
1.28571 2.75 0
1.5 3 0
1.5 2.75 0
1.5 3 0
1.5 2.75 0
1.71429 3 0
1.71429 2.75 0
1.71429 3 0
1.71429 2.75 0
1.92857 3 0
1.92857 2.75 0
1.92857 3 0
1.92857 2.75 0
2.14286 3 0
2.14286 2.75 0
2.14286 3 0
2.14286 2.75 0
2.35714 3 0
2.35714 2.75 0
2.35714 3 0
2.35714 2.75 0
2.57143 3 0
2.57143 2.75 0
2.57143 3 0
2.57143 2.75 0
2.78571 3 0
2.78571 2.75 0
2.78571 3 0
2.78571 2.75 0
3 3 0
3 2.75 0
0 2.75 0
0 2.5 0
0.214286 2.75 0
0.214286 2.5 0
0.214286 2.75 0
0.214286 2.5 0
0.428571 2.75 0
0.428571 2.5 0
0.428571 2.75 0
0.428571 2.5 0
0.642857 2.75 0
0.642857 2.5 0
0.642857 2.75 0
0.642857 2.5 0
0.857143 2.75 0
0.857143 2.5 0
0.857143 2.75 0
0.857143 2.5 0
1.07143 2.75 0
1.07143 2.5 0
1.07143 2.75 0
1.07143 2.5 0
1.28571 2.75 0
1.28571 2.5 0
1.28571 2.75 0
1.28571 2.5 0
1.5 2.75 0
1.5 2.5 0
1.5 2.75 0
1.5 2.5 0
1.71429 2.75 0
1.71429 2.5 0
1.71429 2.75 0
1.71429 2.5 0
1.92857 2.75 0
1.92857 2.5 0
1.92857 2.75 0
1.92857 2.5 0
2.14286 2.75 0
2.14286 2.5 0
2.14286 2.75 0
2.14286 2.5 0
2.35714 2.75 0
2.35714 2.5 0
2.35714 2.75 0
2.35714 2.5 0
2.57143 2.75 0
2.57143 2.5 0
2.57143 2.75 0
2.57143 2.5 0
2.78571 2.75 0
2.78571 2.5 0
2.78571 2.75 0
2.78571 2.5 0
3 2.75 0
3 2.5 0
0 2.5 0
0 2.25 0
0.214286 2.5 0
0.214286 2.25 0
0.214286 2.5 0
0.214286 2.25 0
0.428571 2.5 0
0.428571 2.25 0
0.428571 2.5 0
0.428571 2.25 0
0.642857 2.5 0
0.642857 2.25 0
0.642857 2.5 0
0.642857 2.25 0
0.857143 2.5 0
0.857143 2.25 0
0.857143 2.5 0
0.857143 2.25 0
1.07143 2.5 0
1.07143 2.25 0
1.07143 2.5 0
1.07143 2.25 0
1.28571 2.5 0
1.28571 2.25 0
1.28571 2.5 0
1.28571 2.25 0
1.5 2.5 0
1.5 2.25 0
1.5 2.5 0
1.5 2.25 0
1.71429 2.5 0
1.71429 2.25 0
1.71429 2.5 0
1.71429 2.25 0
1.92857 2.5 0
1.92857 2.25 0
1.92857 2.5 0
1.92857 2.25 0
2.14286 2.5 0
2.14286 2.25 0
2.14286 2.5 0
2.14286 2.25 0
2.35714 2.5 0
2.35714 2.25 0
2.35714 2.5 0
2.35714 2.25 0
2.57143 2.5 0
2.57143 2.25 0
2.57143 2.5 0
2.57143 2.25 0
2.78571 2.5 0
2.78571 2.25 0
2.78571 2.5 0
2.78571 2.25 0
3 2.5 0
3 2.25 0
1.28571 2.25 0
1.28571 2 0
1.5 2.25 0
1.5 2 0
0 0.75 0
0.107143 0.75 0
0 0.875 0
0.107143 0.875 0
0.107143 0.75 0
0.214286 0.75 0
0.107143 0.875 0
0.214286 0.875 0
0 0.875 0
0.107143 0.875 0
0 1 0
0.107143 1 0
0.107143 0.875 0
0.214286 0.875 0
0.107143 1 0
0.214286 1 0
0.214286 0.75 0
0.321429 0.75 0
0.214286 0.875 0
0.321429 0.875 0
0.321429 0.75 0
0.428571 0.75 0
0.321429 0.875 0
0.428571 0.875 0
0.214286 0.875 0
0.321429 0.875 0
0.214286 1 0
0.321429 1 0
0.321429 0.875 0
0.428571 0.875 0
0.321429 1 0
0.428571 1 0
0.428571 0.75 0
0.535714 0.75 0
0.428571 0.875 0
0.535714 0.875 0
0.535714 0.75 0
0.642857 0.75 0
0.535714 0.875 0
0.642857 0.875 0
0.428571 0.875 0
0.535714 0.875 0
0.428571 1 0
0.535714 1 0
0.535714 0.875 0
0.642857 0.875 0
0.535714 1 0
0.642857 1 0
0.642857 0.75 0
0.75 0.75 0
0.642857 0.875 0
0.75 0.875 0
0.75 0.75 0
0.857143 0.75 0
0.75 0.875 0
0.857143 0.875 0
0.642857 0.875 0
0.75 0.875 0
0.642857 1 0
0.75 1 0
0.75 0.875 0
0.857143 0.875 0
0.75 1 0
0.857143 1 0
0.857143 0.75 0
0.964286 0.75 0
0.857143 0.875 0
0.964286 0.875 0
0.964286 0.75 0
1.07143 0.75 0
0.964286 0.875 0
1.07143 0.875 0
0.857143 0.875 0
0.964286 0.875 0
0.857143 1 0
0.964286 1 0
0.964286 0.875 0
1.07143 0.875 0
0.964286 1 0
1.07143 1 0
1.07143 0.75 0
1.17857 0.75 0
1.07143 0.875 0
1.17857 0.875 0
1.17857 0.75 0
1.28571 0.75 0
1.17857 0.875 0
1.28571 0.875 0
1.07143 0.875 0
1.17857 0.875 0
1.07143 1 0
1.17857 1 0
1.17857 0.875 0
1.28571 0.875 0
1.17857 1 0
1.28571 1 0
1.5 0.75 0
1.60714 0.75 0
1.5 0.875 0
1.60714 0.875 0
1.60714 0.75 0
1.71429 0.75 0
1.60714 0.875 0
1.71429 0.875 0
1.5 0.875 0
1.60714 0.875 0
1.5 1 0
1.60714 1 0
1.60714 0.875 0
1.71429 0.875 0
1.60714 1 0
1.71429 1 0
1.71429 0.75 0
1.82143 0.75 0
1.71429 0.875 0
1.82143 0.875 0
1.82143 0.75 0
1.92857 0.75 0
1.82143 0.875 0
1.92857 0.875 0
1.71429 0.875 0
1.82143 0.875 0
1.71429 1 0
1.82143 1 0
1.82143 0.875 0
1.92857 0.875 0
1.82143 1 0
1.92857 1 0
1.92857 0.75 0
2.03571 0.75 0
1.92857 0.875 0
2.03571 0.875 0
2.03571 0.75 0
2.14286 0.75 0
2.03571 0.875 0
2.14286 0.875 0
1.92857 0.875 0
2.03571 0.875 0
1.92857 1 0
2.03571 1 0
2.03571 0.875 0
2.14286 0.875 0
2.03571 1 0
2.14286 1 0
2.14286 0.75 0
2.25 0.75 0
2.14286 0.875 0
2.25 0.875 0
2.25 0.75 0
2.35714 0.75 0
2.25 0.875 0
2.35714 0.875 0
2.14286 0.875 0
2.25 0.875 0
2.14286 1 0
2.25 1 0
2.25 0.875 0
2.35714 0.875 0
2.25 1 0
2.35714 1 0
2.35714 0.75 0
2.46429 0.75 0
2.35714 0.875 0
2.46429 0.875 0
2.46429 0.75 0
2.57143 0.75 0
2.46429 0.875 0
2.57143 0.875 0
2.35714 0.875 0
2.46429 0.875 0
2.35714 1 0
2.46429 1 0
2.46429 0.875 0
2.57143 0.875 0
2.46429 1 0
2.57143 1 0
2.57143 0.75 0
2.67857 0.75 0
2.57143 0.875 0
2.67857 0.875 0
2.67857 0.75 0
2.78571 0.75 0
2.67857 0.875 0
2.78571 0.875 0
2.57143 0.875 0
2.67857 0.875 0
2.57143 1 0
2.67857 1 0
2.67857 0.875 0
2.78571 0.875 0
2.67857 1 0
2.78571 1 0
2.78571 0.75 0
2.89286 0.75 0
2.78571 0.875 0
2.89286 0.875 0
2.89286 0.75 0
3 0.75 0
2.89286 0.875 0
3 0.875 0
2.78571 0.875 0
2.89286 0.875 0
2.78571 1 0
2.89286 1 0
2.89286 0.875 0
3 0.875 0
2.89286 1 0
3 1 0
0 2 0
0 1.875 0
0.107143 2 0
0.107143 1.875 0
0 1.875 0
0 1.75 0
0.107143 1.875 0
0.107143 1.75 0
0.107143 2 0
0.107143 1.875 0
0.214286 2 0
0.214286 1.875 0
0.107143 1.875 0
0.107143 1.75 0
0.214286 1.875 0
0.214286 1.75 0
0.214286 2 0
0.214286 1.875 0
0.321429 2 0
0.321429 1.875 0
0.214286 1.875 0
0.214286 1.75 0
0.321429 1.875 0
0.321429 1.75 0
0.321429 2 0
0.321429 1.875 0
0.428571 2 0
0.428571 1.875 0
0.321429 1.875 0
0.321429 1.75 0
[...]
POINT_DATA 1296
VECTORS velocity double
0 0 0
0 0 0
0 0 0
1.59459e-06 -1.65958e-05 0
0 0 0
1.59459e-06 -1.65958e-05 0
0 0 0
-0.000493082 0.000585782 0
0 0 0
-0.000493082 0.000585782 0
0 0 0
-0.000754175 0.00207283 0
0 0 0
0 0 0
1.59459e-06 -1.65958e-05 0
-4.89959e-05 4.75969e-05 0
1.59459e-06 -1.65958e-05 0
-4.89959e-05 4.75969e-05 0
-0.000493082 0.000585782 0
-0.00136024 0.000564131 0
-0.000493082 0.000585782 0
-0.00136024 0.000564131 0
-0.000754175 0.00207283 0
-0.00252044 0.00215756 0
0 0 0
0 0 0
-4.89959e-05 4.75969e-05 0
-0.000153352 5.08199e-05 0
-4.89959e-05 4.75969e-05 0
-0.000153352 5.08199e-05 0
-0.00136024 0.000564131 0
-0.00203628 0.000493452 0
-0.00136024 0.000564131 0
-0.00203628 0.000493452 0
-0.00252044 0.00215756 0
-0.00418463 0.00163872 0
0 0 0
0 0 0
-0.000153352 5.08199e-05 0
-0.000334484 0.000141324 0
-0.000153352 5.08199e-05 0
-0.000334484 0.000141324 0
-0.00203628 0.000493452 0
-0.00253291 0.000543272 0
-0.00203628 0.000493452 0
-0.00253291 0.000543272 0
-0.00418463 0.00163872 0
-0.00523229 0.00120881 0
0 0 0
0 0 0
-0.000334484 0.000141324 0
-0.000945405 0.000554412 0
-0.000334484 0.000141324 0
-0.000945405 0.000554412 0
-0.00253291 0.000543272 0
-0.00243358 0.000808993 0
-0.00253291 0.000543272 0
-0.00243358 0.000808993 0
-0.00523229 0.00120881 0
-0.00685054 0.00192257 0
0 0 0
0 0 0
-0.000945405 0.000554412 0
-0.00231498 0.00101859 0
-0.000945405 0.000554412 0
-0.00231498 0.00101859 0
-0.00243358 0.000808993 0
-0.00207278 0.00199988 0
-0.00243358 0.000808993 0
-0.00207278 0.00199988 0
-0.00685054 0.00192257 0
-0.00797693 0.00179228 0
0 0 0
0 0 0
-0.00231498 0.00101859 0
-0.00489831 0.00196073 0
-0.00231498 0.00101859 0
-0.00489831 0.00196073 0
-0.00207278 0.00199988 0
-0.00283343 0.00489412 0
-0.00207278 0.00199988 0
-0.00283343 0.00489412 0
-0.00797693 0.00179228 0
-0.00541137 0.00294247 0
-0.00797693 0.00179228 0
-0.00541137 0.00294247 0
0.0279057 0.000686566 0
0.0291794 -0.000399119 0
0 0 0
0 0 0
-0.00489831 0.00196073 0
-0.0106268 0.00478505 0
-0.00489831 0.00196073 0
-0.0106268 0.00478505 0
-0.00283343 0.00489412 0
-0.00616584 0.0125405 0
-0.00283343 0.00489412 0
-0.00616584 0.0125405 0
-0.00541137 0.00294247 0
0.00139842 0.0106226 0
0 0 0
0 0 0
-0.0106268 0.00478505 0
-0.0215212 0.00790574 0
-0.0106268 0.00478505 0
-0.0215212 0.00790574 0
-0.00616584 0.0125405 0
-0.0111347 0.0184808 0
-0.00616584 0.0125405 0
-0.0111347 0.0184808 0
0.00139842 0.0106226 0
0.01383 0.0116468 0
0 0 0
0 0 0
-0.0215212 0.00790574 0
-0.0332991 0.00614495 0
-0.0215212 0.00790574 0
-0.0332991 0.00614495 0
-0.0111347 0.0184808 0
-0.011985 0.010375 0
-0.0111347 0.0184808 0
-0.011985 0.010375 0
0.01383 0.0116468 0
0.0203378 0.010887 0
0 0 0
0 0 0
-0.0332991 0.00614495 0
-0.0369854 -0.00161539 0
-0.0332991 0.00614495 0
-0.0369854 -0.00161539 0
-0.011985 0.010375 0
-0.00869876 -0.00591499 0
-0.011985 0.010375 0
-0.00869876 -0.00591499 0
0.0203378 0.010887 0
0.0185578 -0.00871369 0
0 0 0
0 0 0
-0.0369854 -0.00161539 0
-0.0291534 -0.00712143 0
-0.0369854 -0.00161539 0
-0.0291534 -0.00712143 0
-0.00869876 -0.00591499 0
-0.00856731 -0.0117869 0
-0.00869876 -0.00591499 0
-0.00856731 -0.0117869 0
0.0185578 -0.00871369 0
0.0108276 0.000460657 0
0 0 0
0 0 0
-0.0291534 -0.00712143 0
-0.0117418 -0.0135808 0
-0.0291534 -0.00712143 0
-0.0117418 -0.0135808 0
-0.00856731 -0.0117869 0
-0.0057164 -0.0329855 0
-0.00856731 -0.0117869 0
-0.0057164 -0.0329855 0
0.0108276 0.000460657 0
0.000572412 -0.0375466 0
0 0 0
0 0 0
-0.0117418 -0.0135808 0
0 0 0
-0.0117418 -0.0135808 0
0 0 0
-0.0057164 -0.0329855 0
0 0 0
-0.0057164 -0.0329855 0
0 0 0
0.000572412 -0.0375466 0
0 0 0
0.0279057 -0.000686566 0
0.187058 0.000287846 0
0.0291794 0.000399119 0
0.186666 0.000331916 0
0.1875 0 0
0.25 0 0
0.187477 0.000134283 0
0.249981 -1.61246e-14 0
0.187477 0.000134283 0
0.249981 -1.61246e-14 0
0.18747 0.000155809 0
0.249758 -3.48296e-14 0
0.18747 0.000155809 0
0.249758 -3.48296e-14 0
0.187431 0.00022858 0
0.249481 -5.42559e-14 0
0.187431 0.00022858 0
0.249481 -5.42559e-14 0
0.187359 0.000183984 0
0.249188 -7.37657e-14 0
0.187359 0.000183984 0
0.249188 -7.37657e-14 0
0.187315 0.000235934 0
0.248847 -9.14723e-14 0
0.187315 0.000235934 0
0.248847 -9.14723e-14 0
0.187058 0.000287846 0
0.248622 -1.02405e-13 0
0.187058 0.000287846 0
0.248622 -1.02405e-13 0
0.186666 0.000331916 0
0.248525 -1.00518e-13 0
0.186666 0.000331916 0
0.248525 -1.00518e-13 0
0.186439 -0.000111663 0
0.248581 -5.58624e-14 0
0.186439 -0.000111663 0
0.248581 -5.58624e-14 0
0.186707 -0.000261349 0
0.248625 -4.10634e-15 0
0.186707 -0.000261349 0
0.248625 -4.10634e-15 0
0.186954 -1.56682e-05 0
0.248635 1.25311e-13 0
0.186954 -1.56682e-05 0
0.248635 1.25311e-13 0
0.186908 0.000463554 0
0.248278 2.21164e-13 0
0.186908 0.000463554 0
0.248278 2.21164e-13 0
0.186235 0.00117683 0
0.247599 3.53185e-13 0
0.186235 0.00117683 0
0.247599 3.53185e-13 0
0.185442 0.000480019 0
0.246899 3.83204e-13 0
0.185442 0.000480019 0
0.246899 3.83204e-13 0
0.185165 -0.00119645 0
0.247207 3.93352e-13 0
0.25 0 0
0.1875 0 0
0.249981 -1.61246e-14 0
0.187477 -0.000134283 0
0.249981 -1.61246e-14 0
0.187477 -0.000134283 0
0.249758 -3.48296e-14 0
0.18747 -0.000155809 0
0.249758 -3.48296e-14 0
0.18747 -0.000155809 0
0.249481 -5.42559e-14 0
0.187431 -0.00022858 0
0.249481 -5.42559e-14 0
0.187431 -0.00022858 0
0.249188 -7.37657e-14 0
0.187359 -0.000183984 0
0.249188 -7.37657e-14 0
0.187359 -0.000183984 0
0.248847 -9.14723e-14 0
0.187315 -0.000235934 0
0.248847 -9.14723e-14 0
0.187315 -0.000235934 0
0.248622 -1.02405e-13 0
0.187058 -0.000287846 0
0.248622 -1.02405e-13 0
0.187058 -0.000287846 0
0.248525 -1.00518e-13 0
0.186666 -0.000331916 0
0.248525 -1.00518e-13 0
0.186666 -0.000331916 0
0.248581 -5.58624e-14 0
0.186439 0.000111663 0
0.248581 -5.58624e-14 0
0.186439 0.000111663 0
0.248625 -4.10634e-15 0
0.186707 0.000261349 0
0.248625 -4.10634e-15 0
0.186707 0.000261349 0
0.248635 1.25311e-13 0
0.186954 1.56682e-05 0
0.248635 1.25311e-13 0
0.186954 1.56682e-05 0
0.248278 2.21164e-13 0
0.186908 -0.000463554 0
0.248278 2.21164e-13 0
0.186908 -0.000463554 0
0.247599 3.53185e-13 0
0.186235 -0.00117683 0
0.247599 3.53185e-13 0
0.186235 -0.00117683 0
0.246899 3.83204e-13 0
0.185442 -0.000480019 0
0.246899 3.83204e-13 0
0.185442 -0.000480019 0
0.247207 3.93352e-13 0
0.185165 0.00119645 0
0.187058 -0.000287846 0
0.0279057 0.000686566 0
0.186666 -0.000331916 0
0.0291794 -0.000399119 0
0 0 0
0 0 0
0 0 0
1.59459e-06 1.65958e-05 0
0 0 0
1.59459e-06 1.65958e-05 0
0 0 0
-4.89959e-05 -4.75969e-05 0
0 0 0
-4.89959e-05 -4.75969e-05 0
0 0 0
-0.000153352 -5.08199e-05 0
0 0 0
-0.000153352 -5.08199e-05 0
0 0 0
-0.000334484 -0.000141324 0
0 0 0
-0.000334484 -0.000141324 0
0 0 0
-0.000945405 -0.000554412 0
0 0 0
-0.000945405 -0.000554412 0
0 0 0
-0.00231498 -0.00101859 0
0 0 0
-0.00231498 -0.00101859 0
0 0 0
-0.00489831 -0.00196073 0
0 0 0
-0.00489831 -0.00196073 0
0 0 0
-0.0106268 -0.00478505 0
0 0 0
-0.0106268 -0.00478505 0
0 0 0
-0.0215212 -0.00790574 0
0 0 0
-0.0215212 -0.00790574 0
0 0 0
-0.0332991 -0.00614495 0
0 0 0
-0.0332991 -0.00614495 0
0 0 0
-0.0369854 0.00161539 0
0 0 0
-0.0369854 0.00161539 0
0 0 0
-0.0291534 0.00712143 0
0 0 0
-0.0291534 0.00712143 0
0 0 0
-0.0117418 0.0135808 0
0 0 0
-0.0117418 0.0135808 0
0 0 0
0 0 0
0 0 0
0 0 0
1.59459e-06 1.65958e-05 0
-0.000493082 -0.000585782 0
1.59459e-06 1.65958e-05 0
-0.000493082 -0.000585782 0
-4.89959e-05 -4.75969e-05 0
-0.00136024 -0.000564131 0
-4.89959e-05 -4.75969e-05 0
-0.00136024 -0.000564131 0
-0.000153352 -5.08199e-05 0
-0.00203628 -0.000493452 0
-0.000153352 -5.08199e-05 0
-0.00203628 -0.000493452 0
-0.000334484 -0.000141324 0
-0.00253291 -0.000543272 0
-0.000334484 -0.000141324 0
-0.00253291 -0.000543272 0
-0.000945405 -0.000554412 0
-0.00243358 -0.000808993 0
-0.000945405 -0.000554412 0
-0.00243358 -0.000808993 0
-0.00231498 -0.00101859 0
-0.00207278 -0.00199988 0
-0.00231498 -0.00101859 0
-0.00207278 -0.00199988 0
-0.00489831 -0.00196073 0
-0.00283343 -0.00489412 0
-0.00489831 -0.00196073 0
-0.00283343 -0.00489412 0
-0.0106268 -0.00478505 0
-0.00616584 -0.0125405 0
-0.0106268 -0.00478505 0
-0.00616584 -0.0125405 0
-0.0215212 -0.00790574 0
-0.0111347 -0.0184808 0
-0.0215212 -0.00790574 0
-0.0111347 -0.0184808 0
-0.0332991 -0.00614495 0
-0.011985 -0.010375 0
-0.0332991 -0.00614495 0
-0.011985 -0.010375 0
-0.0369854 0.00161539 0
-0.00869876 0.00591499 0
-0.0369854 0.00161539 0
-0.00869876 0.00591499 0
-0.0291534 0.00712143 0
-0.00856731 0.0117869 0
-0.0291534 0.00712143 0
-0.00856731 0.0117869 0
-0.0117418 0.0135808 0
-0.0057164 0.0329855 0
-0.0117418 0.0135808 0
-0.0057164 0.0329855 0
0 0 0
0 0 0
0 0 0
0 0 0
-0.000493082 -0.000585782 0
-0.000754175 -0.00207283 0
-0.000493082 -0.000585782 0
-0.000754175 -0.00207283 0
-0.00136024 -0.000564131 0
-0.00252044 -0.00215756 0
-0.00136024 -0.000564131 0
-0.00252044 -0.00215756 0
-0.00203628 -0.000493452 0
-0.00418463 -0.00163872 0
-0.00203628 -0.000493452 0
-0.00418463 -0.00163872 0
-0.00253291 -0.000543272 0
-0.00523229 -0.00120881 0
-0.00253291 -0.000543272 0
-0.00523229 -0.00120881 0
-0.00243358 -0.000808993 0
-0.00685054 -0.00192257 0
-0.00243358 -0.000808993 0
-0.00685054 -0.00192257 0
-0.00207278 -0.00199988 0
-0.00797693 -0.00179228 0
-0.00207278 -0.00199988 0
-0.00797693 -0.00179228 0
-0.00283343 -0.00489412 0
-0.00541137 -0.00294247 0
-0.00283343 -0.00489412 0
-0.00541137 -0.00294247 0
-0.00616584 -0.0125405 0
0.00139842 -0.0106226 0
-0.00616584 -0.0125405 0
0.00139842 -0.0106226 0
-0.0111347 -0.0184808 0
0.01383 -0.0116468 0
-0.0111347 -0.0184808 0
0.01383 -0.0116468 0
-0.011985 -0.010375 0
0.0203378 -0.010887 0
-0.011985 -0.010375 0
0.0203378 -0.010887 0
-0.00869876 0.00591499 0
0.0185578 0.00871369 0
-0.00869876 0.00591499 0
0.0185578 0.00871369 0
-0.00856731 0.0117869 0
0.0108276 -0.000460657 0
-0.00856731 0.0117869 0
0.0108276 -0.000460657 0
-0.0057164 0.0329855 0
0.000572412 0.0375466 0
-0.0057164 0.0329855 0
0.000572412 0.0375466 0
0 0 0
0 0 0
-0.00797693 -0.00179228 0
0.0279057 -0.000686566 0
-0.00541137 -0.00294247 0
0.0291794 0.000399119 0
0 0 0
-0.000177096 0.00103802 0
0 0 0
-0.00158164 0.00330656 0
-0.000177096 0.00103802 0
-0.000754175 0.00207283 0
-0.00158164 0.00330656 0
-0.00373405 0.00323709 0
0 0 0
-0.00158164 0.00330656 0
0 0 0
0.00307883 0.00209025 0
-0.00158164 0.00330656 0
-0.00373405 0.00323709 0
0.00307883 0.00209025 0
0.00813166 0.00151285 0
-0.000754175 0.00207283 0
-0.00158363 0.0021195 0
-0.00373405 0.00323709 0
-0.00430442 0.00284787 0
-0.00158363 0.0021195 0
-0.00252044 0.00215756 0
-0.00430442 0.00284787 0
-0.00430028 0.00278426 0
-0.00373405 0.00323709 0
-0.00430442 0.00284787 0
0.00813166 0.00151285 0
0.011968 0.00118746 0
-0.00430442 0.00284787 0
-0.00430028 0.00278426 0
0.011968 0.00118746 0
0.015209 0.00103127 0
-0.00252044 0.00215756 0
-0.00343168 0.00189924 0
-0.00430028 0.00278426 0
-0.00396991 0.00222603 0
-0.00343168 0.00189924 0
-0.00418463 0.00163872 0
-0.00396991 0.00222603 0
-0.00371171 0.00216996 0
-0.00430028 0.00278426 0
-0.00396991 0.00222603 0
0.015209 0.00103127 0
0.0178958 0.000791808 0
-0.00396991 0.00222603 0
-0.00371171 0.00216996 0
0.0178958 0.000791808 0
0.0202357 0.000853483 0
-0.00418463 0.00163872 0
-0.00478303 0.00141916 0
-0.00371171 0.00216996 0
-0.0033815 0.00149001 0
-0.00478303 0.00141916 0
-0.00523229 0.00120881 0
-0.0033815 0.00149001 0
-0.00331616 0.00188068 0
-0.00371171 0.00216996 0
-0.0033815 0.00149001 0
0.0202357 0.000853483 0
0.0221261 0.000470451 0
-0.0033815 0.00149001 0
-0.00331616 0.00188068 0
0.0221261 0.000470451 0
0.024017 0.000823676 0
-0.00523229 0.00120881 0
-0.0058241 0.00155839 0
-0.00331616 0.00188068 0
-0.00275419 0.00121331 0
-0.0058241 0.00155839 0
-0.00685054 0.00192257 0
-0.00275419 0.00121331 0
-0.00186678 0.00273883 0
-0.00331616 0.00188068 0
-0.00275419 0.00121331 0
0.024017 0.000823676 0
0.0254626 0.000107021 0
-0.00275419 0.00121331 0
-0.00186678 0.00273883 0
0.0254626 0.000107021 0
0.0270269 0.00111986 0
-0.00685054 0.00192257 0
-0.00775719 0.00185618 0
-0.00186678 0.00273883 0
-0.000390069 0.0006717 0
-0.00775719 0.00185618 0
-0.00797693 0.00179228 0
-0.000390069 0.0006717 0
0.00137096 0.00147807 0
-0.00186678 0.00273883 0
-0.000390069 0.0006717 0
0.0270269 0.00111986 0
0.0279615 -0.000407101 0
-0.000390069 0.0006717 0
0.00137096 0.00147807 0
0.0279615 -0.000407101 0
0.0279057 0.000686566 0
-0.00541137 0.00294247 0
-0.00244432 0.0065701 0
0.00325218 0.000652065 0
0.00666559 0.00112068 0
-0.00244432 0.0065701 0
0.00139842 0.0106226 0
0.00666559 0.00112068 0
0.00968815 0.00768216 0
0.00325218 0.000652065 0
0.00666559 0.00112068 0
0.0291794 -0.000399119 0
0.027685 -0.000125001 0
0.00666559 0.00112068 0
0.00968815 0.00768216 0
0.027685 -0.000125001 0
0.0299378 0.00254521 0
0.00139842 0.0106226 0
0.00660688 0.0114314 0
0.00968815 0.00768216 0
0.0140961 0.00282296 0
0.00660688 0.0114314 0
0.01383 0.0116468 0
0.0140961 0.00282296 0
0.0171172 0.00803347 0
0.00968815 0.00768216 0
0.0140961 0.00282296 0
0.0299378 0.00254521 0
0.0318392 0.000614376 0
0.0140961 0.00282296 0
0.0171172 0.00803347 0
0.0318392 0.000614376 0
0.0345277 0.00331148 0
0.01383 0.0116468 0
0.0196181 0.010894 0
0.0171172 0.00803347 0
0.0211322 0.00273109 0
0.0196181 0.010894 0
0.0203378 0.010887 0
0.0211322 0.00273109 0
0.0271313 0.0109943 0
0.0171172 0.00803347 0
0.0211322 0.00273109 0
0.0345277 0.00331148 0
0.036292 0.000709089 0
0.0211322 0.00273109 0
0.0271313 0.0109943 0
0.036292 0.000709089 0
0.0386089 0.00287102 0
0.0203378 0.010887 0
0.0188855 0.00187141 0
0.0271313 0.0109943 0
0.0316505 -0.0019845 0
0.0188855 0.00187141 0
0.0185578 -0.00871369 0
0.0316505 -0.0019845 0
0.0271389 0.000792438 0
0.0271313 0.0109943 0
0.0316505 -0.0019845 0
0.0386089 0.00287102 0
0.0398081 -0.000425242 0
0.0316505 -0.0019845 0
0.0271389 0.000792438 0
0.0398081 -0.000425242 0
0.0418844 0.00158532 0
0.0185578 -0.00871369 0
0.0168704 -0.00514604 0
0.0271389 0.000792438 0
0.0223902 -0.00740985 0
0.0168704 -0.00514604 0
0.0108276 0.000460657 0
0.0223902 -0.00740985 0
0.0237683 0.00793981 0
0.0271389 0.000792438 0
0.0223902 -0.00740985 0
0.0418844 0.00158532 0
0.0416466 -0.00228935 0
0.0223902 -0.00740985 0
0.0237683 0.00793981 0
0.0416466 -0.00228935 0
0.0422394 -0.000295376 0
0.0108276 0.000460657 0
0.00396127 -0.0174964 0
0.0237683 0.00793981 0
0.0246152 -0.0180587 0
0.00396127 -0.0174964 0
0.000572412 -0.0375466 0
0.0246152 -0.0180587 0
0.00351443 -0.0082109 0
0.0237683 0.00793981 0
0.0246152 -0.0180587 0
0.0422394 -0.000295376 0
0.0386099 -0.00624704 0
0.0246152 -0.0180587 0
0.00351443 -0.0082109 0
0.0386099 -0.00624704 0
0.040486 0.00137174 0
0.000572412 -0.0375466 0
-6.80576e-05 -0.021011 0
0.00351443 -0.0082109 0
-0.010401 -0.0337976 0
-6.80576e-05 -0.021011 0
0 0 0
-0.010401 -0.0337976 0
0 0 0
0.00351443 -0.0082109 0
-0.010401 -0.0337976 0
0.040486 0.00137174 0
0.0295399 -0.0138426 0
-0.010401 -0.0337976 0
0 0 0
0.0295399 -0.0138426 0
0 0 0
0 0 0
0.109375 0 0
0.00307883 -0.00209025 0
0.109211 0.000479636 0
0.109375 0 0
0.1875 0 0
0.109211 0.000479636 0
0.187518 5.13282e-05 0
0.00307883 -0.00209025 0
0.109211 0.000479636 0
0.00813166 -0.00151285 0
0.108778 0.000487032 0
0.109211 0.000479636 0
0.187518 5.13282e-05 0
0.108778 0.000487032 0
0.187477 0.000134283 0
0.00813166 -0.00151285 0
0.108778 0.000487032 0
0.011968 -0.00118746 0
0.10858 0.000375886 0
0.108778 0.000487032 0
0.187477 0.000134283 0
0.10858 0.000375886 0
0.187425 0.000148814 0
0.011968 -0.00118746 0
0.10858 0.000375886 0
0.015209 -0.00103127 0
0.10841 0.000405196 0
0.10858 0.000375886 0
0.187425 0.000148814 0
0.10841 0.000405196 0
0.18747 0.000155809 0
0.015209 -0.00103127 0
0.10841 0.000405196 0
0.0178958 -0.000791808 0
0.108336 0.000326373 0
0.10841 0.000405196 0
0.18747 0.000155809 0
0.108336 0.000326373 0
0.187522 0.000190329 0
0.0178958 -0.000791808 0
0.108336 0.000326373 0
0.0202357 -0.000853483 0
0.108446 0.000472513 0
0.108336 0.000326373 0
0.187522 0.000190329 0
0.108446 0.000472513 0
0.187431 0.00022858 0
0.0202357 -0.000853483 0
0.108446 0.000472513 0
0.0221261 -0.000470451 0
0.108643 0.000297139 0
0.108446 0.000472513 0
0.187431 0.00022858 0
0.108643 0.000297139 0
0.187314 0.00020726 0
0.0221261 -0.000470451 0
0.108643 0.000297139 0
0.024017 -0.000823676 0
0.108717 0.000432618 0
0.108643 0.000297139 0
0.187314 0.00020726 0
0.108717 0.000432618 0
0.187359 0.000183984 0
0.024017 -0.000823676 0
0.108717 0.000432618 0
0.0254626 -0.000107021 0
0.108838 0.000247298 0
0.108717 0.000432618 0
0.187359 0.000183984 0
0.108838 0.000247298 0
0.187431 0.000212557 0
0.0254626 -0.000107021 0
0.108838 0.000247298 0
0.0270269 -0.00111986 0
0.109127 0.00055216 0
0.108838 0.000247298 0
0.187431 0.000212557 0
0.109127 0.00055216 0
0.187315 0.000235934 0
0.0270269 -0.00111986 0
0.109127 0.00055216 0
0.0279615 0.000407101 0
0.109581 0.000261865 0
0.109127 0.00055216 0
0.187315 0.000235934 0
0.109581 0.000261865 0
0.187118 0.000258574 0
0.0279615 0.000407101 0
0.109581 0.000261865 0
0.0279057 -0.000686566 0
0.11025 7.61732e-05 0
0.109581 0.000261865 0
0.187118 0.000258574 0
0.11025 7.61732e-05 0
0.187058 0.000287846 0
0.0291794 0.000399119 0
0.110656 0.000611694 0
0.027685 0.000125001 0
0.111364 -0.000872608 0
0.110656 0.000611694 0
0.186666 0.000331916 0
0.111364 -0.000872608 0
0.186364 9.49786e-05 0
0.027685 0.000125001 0
0.111364 -0.000872608 0
0.0299378 -0.00254521 0
0.111127 0.00102671 0
0.111364 -0.000872608 0
0.186364 9.49786e-05 0
0.111127 0.00102671 0
0.186439 -0.000111663 0
0.0299378 -0.00254521 0
0.111127 0.00102671 0
0.0318392 -0.000614376 0
0.111178 -0.00173137 0
0.111127 0.00102671 0
0.186439 -0.000111663 0
0.111178 -0.00173137 0
0.186633 -0.000178378 0
0.0318392 -0.000614376 0
0.111178 -0.00173137 0
0.0345277 -0.00331148 0
0.111184 0.00132154 0
0.111178 -0.00173137 0
0.186633 -0.000178378 0
0.111184 0.00132154 0
0.186707 -0.000261349 0
0.0345277 -0.00331148 0
0.111184 0.00132154 0
0.036292 -0.000709089 0
0.111592 -0.0024126 0
0.111184 0.00132154 0
0.186707 -0.000261349 0
0.111592 -0.0024126 0
0.186722 -0.000165571 0
0.036292 -0.000709089 0
0.111592 -0.0024126 0
0.0386089 -0.00287102 0
0.111569 0.00218234 0
0.111592 -0.0024126 0
0.186722 -0.000165571 0
0.111569 0.00218234 0
0.186954 -1.56682e-05 0
0.0386089 -0.00287102 0
0.111569 0.00218234 0
0.0398081 0.000425242 0
0.111841 -0.00250019 0
0.111569 0.00218234 0
0.186954 -1.56682e-05 0
0.111841 -0.00250019 0
0.187102 0.000234376 0
0.0398081 0.000425242 0
0.111841 -0.00250019 0
0.0418844 -0.00158532 0
0.111548 0.0042044 0
0.111841 -0.00250019 0
0.187102 0.000234376 0
0.111548 0.0042044 0
0.186908 0.000463554 0
0.0418844 -0.00158532 0
0.111548 0.0042044 0
0.0416466 0.00228935 0
0.111645 -0.0028454 0
0.111548 0.0042044 0
0.186908 0.000463554 0
0.111645 -0.0028454 0
0.186453 0.000741554 0
0.0416466 0.00228935 0
0.111645 -0.0028454 0
0.0422394 0.000295376 0
0.110872 0.00644551 0
0.111645 -0.0028454 0
0.186453 0.000741554 0
0.110872 0.00644551 0
0.186235 0.00117683 0
0.0422394 0.000295376 0
0.110872 0.00644551 0
0.0386099 0.00624704 0
0.110573 -0.00380722 0
0.110872 0.00644551 0
0.186235 0.00117683 0
0.110573 -0.00380722 0
0.18594 0.000868618 0
0.0386099 0.00624704 0
0.110573 -0.00380722 0
0.040486 -0.00137174 0
0.108255 0.00933891 0
0.110573 -0.00380722 0
0.18594 0.000868618 0
0.108255 0.00933891 0
0.185442 0.000480019 0
0.040486 -0.00137174 0
0.108255 0.00933891 0
0.0295399 0.0138426 0
0.108175 -0.00828669 0
0.108255 0.00933891 0
0.185442 0.000480019 0
0.108175 -0.00828669 0
0.184795 3.73196e-05 0
0.0295399 0.0138426 0
0.108175 -0.00828669 0
0 0 0
0.116497 -0.00239207 0
0.108175 -0.00828669 0
0.184795 3.73196e-05 0
0.116497 -0.00239207 0
0.185165 -0.00119645 0
0.1875 0 0
0.109375 0 0
0.187518 -5.13282e-05 0
0.109211 -0.000479636 0
0.109375 0 0
0 0 0
0.109211 -0.000479636 0
0.00307883 0.00209025 0
0.187518 -5.13282e-05 0
0.109211 -0.000479636 0
0.187477 -0.000134283 0
0.108778 -0.000487032 0
0.109211 -0.000479636 0
0.00307883 0.00209025 0
0.108778 -0.000487032 0
0.00813166 0.00151285 0
0.187477 -0.000134283 0
0.108778 -0.000487032 0
0.187425 -0.000148814 0