# vtk DataFile Version 3.0
#This file was generated by the deal.II library on 2026/3/26 at 14:58:02
ASCII
DATASET UNSTRUCTURED_GRID

POINTS 672 double
0 0 0
0.214286 0 0
0 0.25 0
0.214286 0.25 0
0 0.25 0
0.214286 0.25 0
0 0.5 0
0.214286 0.5 0
0 0.5 0
0.214286 0.5 0
0 0.75 0
0.214286 0.75 0
0 0.75 0
0.214286 0.75 0
0 1 0
0.214286 1 0
0.214286 0 0
0.428571 0 0
0.214286 0.25 0
0.428571 0.25 0
0.214286 0.25 0
0.428571 0.25 0
0.214286 0.5 0
0.428571 0.5 0
0.214286 0.5 0
0.428571 0.5 0
0.214286 0.75 0
0.428571 0.75 0
0.214286 0.75 0
0.428571 0.75 0
0.214286 1 0
0.428571 1 0
0.428571 0 0
0.642857 0 0
0.428571 0.25 0
0.642857 0.25 0
0.428571 0.25 0
0.642857 0.25 0
0.428571 0.5 0
0.642857 0.5 0
0.428571 0.5 0
0.642857 0.5 0
0.428571 0.75 0
0.642857 0.75 0
0.428571 0.75 0
0.642857 0.75 0
0.428571 1 0
0.642857 1 0
0.642857 0 0
0.857143 0 0
0.642857 0.25 0
0.857143 0.25 0
0.642857 0.25 0
0.857143 0.25 0
0.642857 0.5 0
0.857143 0.5 0
0.642857 0.5 0
0.857143 0.5 0
0.642857 0.75 0
0.857143 0.75 0
0.642857 0.75 0
0.857143 0.75 0
0.642857 1 0
0.857143 1 0
0.857143 0 0
1.07143 0 0
0.857143 0.25 0
1.07143 0.25 0
0.857143 0.25 0
1.07143 0.25 0
0.857143 0.5 0
1.07143 0.5 0
0.857143 0.5 0
1.07143 0.5 0
0.857143 0.75 0
1.07143 0.75 0
0.857143 0.75 0
1.07143 0.75 0
0.857143 1 0
1.07143 1 0
1.07143 0 0
1.28571 0 0
1.07143 0.25 0
1.28571 0.25 0
1.07143 0.25 0
1.28571 0.25 0
1.07143 0.5 0
1.28571 0.5 0
1.07143 0.5 0
1.28571 0.5 0
1.07143 0.75 0
1.28571 0.75 0
1.07143 0.75 0
1.28571 0.75 0
1.07143 1 0
1.28571 1 0
1.28571 0 0
1.5 0 0
1.28571 0.25 0
1.5 0.25 0
1.28571 0.25 0
1.5 0.25 0
1.28571 0.5 0
1.5 0.5 0
1.28571 0.5 0
1.5 0.5 0
1.28571 0.75 0
1.5 0.75 0
1.28571 0.75 0
1.5 0.75 0
1.28571 1 0
1.5 1 0
1.5 0 0
1.71429 0 0
1.5 0.25 0
1.71429 0.25 0
1.5 0.25 0
1.71429 0.25 0
1.5 0.5 0
1.71429 0.5 0
1.5 0.5 0
1.71429 0.5 0
1.5 0.75 0
1.71429 0.75 0
1.5 0.75 0
1.71429 0.75 0
1.5 1 0
1.71429 1 0
1.71429 0 0
1.92857 0 0
1.71429 0.25 0
1.92857 0.25 0
1.71429 0.25 0
1.92857 0.25 0
1.71429 0.5 0
1.92857 0.5 0
1.71429 0.5 0
1.92857 0.5 0
1.71429 0.75 0
1.92857 0.75 0
1.71429 0.75 0
1.92857 0.75 0
1.71429 1 0
1.92857 1 0
1.92857 0 0
2.14286 0 0
1.92857 0.25 0
2.14286 0.25 0
1.92857 0.25 0
2.14286 0.25 0
1.92857 0.5 0
2.14286 0.5 0
1.92857 0.5 0
2.14286 0.5 0
1.92857 0.75 0
2.14286 0.75 0
1.92857 0.75 0
2.14286 0.75 0
1.92857 1 0
2.14286 1 0
2.14286 0 0
2.35714 0 0
2.14286 0.25 0
2.35714 0.25 0
2.14286 0.25 0
2.35714 0.25 0
2.14286 0.5 0
2.35714 0.5 0
2.14286 0.5 0
2.35714 0.5 0
2.14286 0.75 0
2.35714 0.75 0
2.14286 0.75 0
2.35714 0.75 0
2.14286 1 0
2.35714 1 0
2.35714 0 0
2.57143 0 0
2.35714 0.25 0
2.57143 0.25 0
2.35714 0.25 0
2.57143 0.25 0
2.35714 0.5 0
2.57143 0.5 0
2.35714 0.5 0
2.57143 0.5 0
2.35714 0.75 0
2.57143 0.75 0
2.35714 0.75 0
2.57143 0.75 0
2.35714 1 0
2.57143 1 0
2.57143 0 0
2.78571 0 0
2.57143 0.25 0
2.78571 0.25 0
2.57143 0.25 0
2.78571 0.25 0
2.57143 0.5 0
2.78571 0.5 0
2.57143 0.5 0
2.78571 0.5 0
2.57143 0.75 0
2.78571 0.75 0
2.57143 0.75 0
2.78571 0.75 0
2.57143 1 0
2.78571 1 0
2.78571 0 0
3 0 0
2.78571 0.25 0
3 0.25 0
2.78571 0.25 0
3 0.25 0
2.78571 0.5 0
3 0.5 0
2.78571 0.5 0
3 0.5 0
2.78571 0.75 0
3 0.75 0
2.78571 0.75 0
3 0.75 0
2.78571 1 0
3 1 0
0 2 0
0 1.75 0
0.214286 2 0
0.214286 1.75 0
0.214286 2 0
0.214286 1.75 0
0.428571 2 0
0.428571 1.75 0
0.428571 2 0
0.428571 1.75 0
0.642857 2 0
0.642857 1.75 0
0.642857 2 0
0.642857 1.75 0
0.857143 2 0
0.857143 1.75 0
0.857143 2 0
0.857143 1.75 0
1.07143 2 0
1.07143 1.75 0
1.07143 2 0
1.07143 1.75 0
1.28571 2 0
1.28571 1.75 0
1.28571 2 0
1.28571 1.75 0
1.5 2 0
1.5 1.75 0
1.5 2 0
1.5 1.75 0
1.71429 2 0
1.71429 1.75 0
1.71429 2 0
1.71429 1.75 0
1.92857 2 0
1.92857 1.75 0
1.92857 2 0
1.92857 1.75 0
2.14286 2 0
2.14286 1.75 0
2.14286 2 0
2.14286 1.75 0
2.35714 2 0
2.35714 1.75 0
2.35714 2 0
2.35714 1.75 0
2.57143 2 0
2.57143 1.75 0
2.57143 2 0
2.57143 1.75 0
2.78571 2 0
2.78571 1.75 0
2.78571 2 0
2.78571 1.75 0
3 2 0
3 1.75 0
0 1.75 0
0 1.5 0
0.214286 1.75 0
0.214286 1.5 0
0.214286 1.75 0
0.214286 1.5 0
0.428571 1.75 0
0.428571 1.5 0
0.428571 1.75 0
0.428571 1.5 0
0.642857 1.75 0
0.642857 1.5 0
0.642857 1.75 0
0.642857 1.5 0
0.857143 1.75 0
0.857143 1.5 0
0.857143 1.75 0
0.857143 1.5 0
1.07143 1.75 0
1.07143 1.5 0
1.07143 1.75 0
1.07143 1.5 0
1.28571 1.75 0
1.28571 1.5 0
1.28571 1.75 0
1.28571 1.5 0
1.5 1.75 0
1.5 1.5 0
1.5 1.75 0
1.5 1.5 0
1.71429 1.75 0
1.71429 1.5 0
1.71429 1.75 0
1.71429 1.5 0
1.92857 1.75 0
1.92857 1.5 0
1.92857 1.75 0
1.92857 1.5 0
2.14286 1.75 0
2.14286 1.5 0
2.14286 1.75 0
2.14286 1.5 0
2.35714 1.75 0
2.35714 1.5 0
2.35714 1.75 0
2.35714 1.5 0
2.57143 1.75 0
2.57143 1.5 0
2.57143 1.75 0
2.57143 1.5 0
2.78571 1.75 0
2.78571 1.5 0
2.78571 1.75 0
2.78571 1.5 0
3 1.75 0
3 1.5 0
0 1.5 0
0 1.25 0
0.214286 1.5 0
0.214286 1.25 0
0.214286 1.5 0
0.214286 1.25 0
0.428571 1.5 0
0.428571 1.25 0
0.428571 1.5 0
0.428571 1.25 0
0.642857 1.5 0
0.642857 1.25 0
0.642857 1.5 0
0.642857 1.25 0
0.857143 1.5 0
0.857143 1.25 0
0.857143 1.5 0
0.857143 1.25 0
1.07143 1.5 0
1.07143 1.25 0
1.07143 1.5 0
1.07143 1.25 0
1.28571 1.5 0
1.28571 1.25 0
1.28571 1.5 0
1.28571 1.25 0
1.5 1.5 0
1.5 1.25 0
1.5 1.5 0
1.5 1.25 0
1.71429 1.5 0
1.71429 1.25 0
1.71429 1.5 0
1.71429 1.25 0
1.92857 1.5 0
1.92857 1.25 0
1.92857 1.5 0
1.92857 1.25 0
2.14286 1.5 0
2.14286 1.25 0
2.14286 1.5 0
2.14286 1.25 0
2.35714 1.5 0
2.35714 1.25 0
2.35714 1.5 0
2.35714 1.25 0
2.57143 1.5 0
2.57143 1.25 0
2.57143 1.5 0
2.57143 1.25 0
2.78571 1.5 0
2.78571 1.25 0
2.78571 1.5 0
2.78571 1.25 0
3 1.5 0
3 1.25 0
0 1.25 0
0 1 0
0.214286 1.25 0
0.214286 1 0
0.214286 1.25 0
0.214286 1 0
0.428571 1.25 0
0.428571 1 0
0.428571 1.25 0
0.428571 1 0
0.642857 1.25 0
0.642857 1 0
0.642857 1.25 0
0.642857 1 0
0.857143 1.25 0
0.857143 1 0
0.857143 1.25 0
0.857143 1 0
1.07143 1.25 0
1.07143 1 0
1.07143 1.25 0
1.07143 1 0
1.28571 1.25 0
1.28571 1 0
1.28571 1.25 0
1.28571 1 0
1.5 1.25 0
1.5 1 0
1.5 1.25 0
1.5 1 0
1.71429 1.25 0
1.71429 1 0
1.71429 1.25 0
1.71429 1 0
1.92857 1.25 0
1.92857 1 0
1.92857 1.25 0
1.92857 1 0
2.14286 1.25 0
2.14286 1 0
2.14286 1.25 0
2.14286 1 0
2.35714 1.25 0
2.35714 1 0
2.35714 1.25 0
2.35714 1 0
2.57143 1.25 0
2.57143 1 0
2.57143 1.25 0
2.57143 1 0
2.78571 1.25 0
2.78571 1 0
2.78571 1.25 0
2.78571 1 0
3 1.25 0
3 1 0
0 3 0
0 2.75 0
0.214286 3 0
0.214286 2.75 0
0.214286 3 0
0.214286 2.75 0
0.428571 3 0
0.428571 2.75 0
0.428571 3 0
0.428571 2.75 0
0.642857 3 0
0.642857 2.75 0
0.642857 3 0
0.642857 2.75 0
0.857143 3 0
0.857143 2.75 0
0.857143 3 0
0.857143 2.75 0
1.07143 3 0
1.07143 2.75 0
1.07143 3 0
1.07143 2.75 0
1.28571 3 0
1.28571 2.75 0
1.28571 3 0
1.28571 2.75 0
1.5 3 0
1.5 2.75 0
1.5 3 0
1.5 2.75 0
1.71429 3 0
1.71429 2.75 0
1.71429 3 0
1.71429 2.75 0
1.92857 3 0
1.92857 2.75 0
1.92857 3 0
1.92857 2.75 0
2.14286 3 0
2.14286 2.75 0
2.14286 3 0
2.14286 2.75 0
2.35714 3 0
2.35714 2.75 0
2.35714 3 0
2.35714 2.75 0
2.57143 3 0
2.57143 2.75 0
2.57143 3 0
2.57143 2.75 0
2.78571 3 0
2.78571 2.75 0
2.78571 3 0
2.78571 2.75 0
3 3 0
3 2.75 0
0 2.75 0
0 2.5 0
0.214286 2.75 0
0.214286 2.5 0
0.214286 2.75 0
0.214286 2.5 0
0.428571 2.75 0
0.428571 2.5 0
0.428571 2.75 0
0.428571 2.5 0
0.642857 2.75 0
0.642857 2.5 0
0.642857 2.75 0
0.642857 2.5 0
0.857143 2.75 0
0.857143 2.5 0
0.857143 2.75 0
0.857143 2.5 0
1.07143 2.75 0
1.07143 2.5 0
1.07143 2.75 0
1.07143 2.5 0
1.28571 2.75 0
1.28571 2.5 0
1.28571 2.75 0
1.28571 2.5 0
1.5 2.75 0
1.5 2.5 0
1.5 2.75 0
1.5 2.5 0
1.71429 2.75 0
1.71429 2.5 0
1.71429 2.75 0
1.71429 2.5 0
1.92857 2.75 0
1.92857 2.5 0
1.92857 2.75 0
1.92857 2.5 0
2.14286 2.75 0
2.14286 2.5 0
2.14286 2.75 0
2.14286 2.5 0
2.35714 2.75 0
2.35714 2.5 0
2.35714 2.75 0
2.35714 2.5 0
2.57143 2.75 0
2.57143 2.5 0
2.57143 2.75 0
2.57143 2.5 0
2.78571 2.75 0
2.78571 2.5 0
2.78571 2.75 0
2.78571 2.5 0
3 2.75 0
3 2.5 0
0 2.5 0
0 2.25 0
0.214286 2.5 0
0.214286 2.25 0
0.214286 2.5 0
0.214286 2.25 0
0.428571 2.5 0
0.428571 2.25 0
0.428571 2.5 0
0.428571 2.25 0
0.642857 2.5 0
0.642857 2.25 0
0.642857 2.5 0
0.642857 2.25 0
0.857143 2.5 0
0.857143 2.25 0
0.857143 2.5 0
0.857143 2.25 0
1.07143 2.5 0
1.07143 2.25 0
1.07143 2.5 0
1.07143 2.25 0
1.28571 2.5 0
1.28571 2.25 0
1.28571 2.5 0
1.28571 2.25 0
1.5 2.5 0
1.5 2.25 0
1.5 2.5 0
1.5 2.25 0
1.71429 2.5 0
1.71429 2.25 0
1.71429 2.5 0
1.71429 2.25 0
1.92857 2.5 0
1.92857 2.25 0
1.92857 2.5 0
1.92857 2.25 0
2.14286 2.5 0
2.14286 2.25 0
2.14286 2.5 0
2.14286 2.25 0
2.35714 2.5 0
2.35714 2.25 0
2.35714 2.5 0
2.35714 2.25 0
2.57143 2.5 0
2.57143 2.25 0
2.57143 2.5 0
2.57143 2.25 0
2.78571 2.5 0
2.78571 2.25 0
2.78571 2.5 0
2.78571 2.25 0
3 2.5 0
3 2.25 0
0 2.25 0
0 2 0
0.214286 2.25 0
0.214286 2 0
0.214286 2.25 0
0.214286 2 0
0.428571 2.25 0
0.428571 2 0
0.428571 2.25 0
0.428571 2 0
0.642857 2.25 0
0.642857 2 0
0.642857 2.25 0
0.642857 2 0
0.857143 2.25 0
0.857143 2 0
0.857143 2.25 0
0.857143 2 0
1.07143 2.25 0
1.07143 2 0
1.07143 2.25 0
1.07143 2 0
1.28571 2.25 0
1.28571 2 0
1.28571 2.25 0
1.28571 2 0
1.5 2.25 0
1.5 2 0
1.5 2.25 0
1.5 2 0
1.71429 2.25 0
1.71429 2 0
1.71429 2.25 0
1.71429 2 0
1.92857 2.25 0
1.92857 2 0
1.92857 2.25 0
1.92857 2 0
2.14286 2.25 0
2.14286 2 0
2.14286 2.25 0
2.14286 2 0
2.35714 2.25 0
2.35714 2 0
2.35714 2.25 0
2.35714 2 0
2.57143 2.25 0
2.57143 2 0
2.57143 2.25 0
2.57143 2 0
2.78571 2.25 0
2.78571 2 0
2.78571 2.25 0
2.78571 2 0
3 2.25 0
3 2 0

CELLS 168 840
4	0	1	3	2
4	4	5	7	6
4	8	9	11	10
4	12	13	15	14
4	16	17	19	18
4	20	21	23	22
4	24	25	27	26
4	28	29	31	30
4	32	33	35	34
4	36	37	39	38
4	40	41	43	42
4	44	45	47	46
4	48	49	51	50
4	52	53	55	54
4	56	57	59	58
4	60	61	63	62
4	64	65	67	66
4	68	69	71	70
4	72	73	75	74
4	76	77	79	78
4	80	81	83	82
4	84	85	87	86
4	88	89	91	90
4	92	93	95	94
4	96	97	99	98
4	100	101	103	102
4	104	105	107	106
4	108	109	111	110
4	112	113	115	114
4	116	117	119	118
4	120	121	123	122
4	124	125	127	126
4	128	129	131	130
4	132	133	135	134
4	136	137	139	138
4	140	141	143	142
4	144	145	147	146
4	148	149	151	150
4	152	153	155	154
4	156	157	159	158
4	160	161	163	162
4	164	165	167	166
4	168	169	171	170
4	172	173	175	174
4	176	177	179	178
4	180	181	183	182
4	184	185	187	186
4	188	189	191	190
4	192	193	195	194
4	196	197	199	198
4	200	201	203	202
4	204	205	207	206
4	208	209	211	210
4	212	213	215	214
4	216	217	219	218
4	220	221	223	222
4	224	225	227	226
4	228	229	231	230
4	232	233	235	234
4	236	237	239	238
4	240	241	243	242
4	244	245	247	246
4	248	249	251	250
4	252	253	255	254
4	256	257	259	258
4	260	261	263	262
4	264	265	267	266
4	268	269	271	270
4	272	273	275	274
4	276	277	279	278
4	280	281	283	282
4	284	285	287	286
4	288	289	291	290
4	292	293	295	294
4	296	297	299	298
4	300	301	303	302
4	304	305	307	306
4	308	309	311	310
4	312	313	315	314
4	316	317	319	318
4	320	321	323	322
4	324	325	327	326
4	328	329	331	330
4	332	333	335	334
4	336	337	339	338
4	340	341	343	342
4	344	345	347	346
4	348	349	351	350
4	352	353	355	354
4	356	357	359	358
4	360	361	363	362
4	364	365	367	366
4	368	369	371	370
4	372	373	375	374
4	376	377	379	378
4	380	381	383	382
4	384	385	387	386
4	388	389	391	390
4	392	393	395	394
4	396	397	399	398
4	400	401	403	402
4	404	405	407	406
4	408	409	411	410
4	412	413	415	414
4	416	417	419	418
4	420	421	423	422
4	424	425	427	426
4	428	429	431	430
4	432	433	435	434
4	436	437	439	438
4	440	441	443	442
4	444	445	447	446
4	448	449	451	450
4	452	453	455	454
4	456	457	459	458
4	460	461	463	462
4	464	465	467	466
4	468	469	471	470
4	472	473	475	474
4	476	477	479	478
4	480	481	483	482
4	484	485	487	486
4	488	489	491	490
4	492	493	495	494
4	496	497	499	498
4	500	501	503	502
4	504	505	507	506
4	508	509	511	510
4	512	513	515	514
4	516	517	519	518
4	520	521	523	522
4	524	525	527	526
4	528	529	531	530
4	532	533	535	534
4	536	537	539	538
4	540	541	543	542
4	544	545	547	546
4	548	549	551	550
4	552	553	555	554
4	556	557	559	558
4	560	561	563	562
4	564	565	567	566
4	568	569	571	570
4	572	573	575	574
4	576	577	579	578
4	580	581	583	582
4	584	585	587	586
4	588	589	591	590
4	592	593	595	594
4	596	597	599	598
4	600	601	603	602
4	604	605	607	606
4	608	609	611	610
4	612	613	615	614
4	616	617	619	618
4	620	621	623	622
4	624	625	627	626
4	628	629	631	630
4	632	633	635	634
4	636	637	639	638
4	640	641	643	642
4	644	645	647	646
4	648	649	651	650
4	652	653	655	654
4	656	657	659	658
4	660	661	663	662
4	664	665	667	666
4	668	669	671	670

CELL_TYPES 168
 9 9 9 9 9 9 9 9 9 9 9 9 9 9 9 9 9 9 9 9 9 9 9 9 9 9 9 9 9 9 9 9 9 9 9 9 9 9 9 9 9 9 9 9 9 9 9 9 9 9 9 9 9 9 9 9 9 9 9 9 9 9 9 9 9 9 9 9 9 9 9 9 9 9 9 9 9 9 9 9 9 9 9 9 9 9 9 9 9 9 9 9 9 9 9 9 9 9 9 9 9 9 9 9 9 9 9 9 9 9 9 9 9 9 9 9 9 9 9 9 9 9 9 9 9 9 9 9 9 9 9 9 9 9 9 9 9 9 9 9 9 9 9 9 9 9 9 9 9 9 9 9 9 9 9 9 9 9 9 9 9 9 9 9 9 9 9 9
POINT_DATA 672
VECTORS velocity double
0 0 0
0 0 0
0 0 0
0.000314829 -0.000363275 0
0 0 0
0.000314829 -0.000363275 0
0 0 0
-0.000171623 -0.000478671 0
0 0 0
-0.000171623 -0.000478671 0
0 0 0
-0.000242172 -2.01313e-05 0
0 0 0
-0.000242172 -2.01313e-05 0
0 0 0
0.000536293 0.000165164 0
0 0 0
0 0 0
0.000314829 -0.000363275 0
0.000323888 0.00032745 0
0.000314829 -0.000363275 0
0.000323888 0.00032745 0
-0.000171623 -0.000478671 0
0.000427316 -0.000208069 0
-0.000171623 -0.000478671 0
0.000427316 -0.000208069 0
-0.000242172 -2.01313e-05 0
-0.00445565 0.00347087 0
-0.000242172 -2.01313e-05 0
-0.00445565 0.00347087 0
0.000536293 0.000165164 0
0.00536983 0.00281071 0
0 0 0
0 0 0
0.000323888 0.00032745 0
-1.44022e-05 5.87585e-05 0
0.000323888 0.00032745 0
-1.44022e-05 5.87585e-05 0
0.000427316 -0.000208069 0
-0.000168324 0.00176588 0
0.000427316 -0.000208069 0
-0.000168324 0.00176588 0
-0.00445565 0.00347087 0
-0.00554263 -1.529e-05 0
-0.00445565 0.00347087 0
-0.00554263 -1.529e-05 0
0.00536983 0.00281071 0
0.00840381 -0.00120145 0
0 0 0
0 0 0
-1.44022e-05 5.87585e-05 0
-0.00081224 0.000852508 0
-1.44022e-05 5.87585e-05 0
-0.00081224 0.000852508 0
-0.000168324 0.00176588 0
-0.000733975 0.00079856 0
-0.000168324 0.00176588 0
-0.000733975 0.00079856 0
-0.00554263 -1.529e-05 0
-0.00686537 0.00472863 0
-0.00554263 -1.529e-05 0
-0.00686537 0.00472863 0
0.00840381 -0.00120145 0
0.0120217 0.00336335 0
0 0 0
0 0 0
-0.00081224 0.000852508 0
-0.00173426 0.000207941 0
-0.00081224 0.000852508 0
-0.00173426 0.000207941 0
-0.000733975 0.00079856 0
-0.00161732 0.0024367 0
-0.000733975 0.00079856 0
-0.00161732 0.0024367 0
-0.00686537 0.00472863 0
-0.00635552 -0.00111359 0
-0.00686537 0.00472863 0
-0.00635552 -0.00111359 0
0.0120217 0.00336335 0
0.0140512 -0.00235805 0
0 0 0
0 0 0
-0.00173426 0.000207941 0
-0.00323443 0.00153436 0
-0.00173426 0.000207941 0
-0.00323443 0.00153436 0
-0.00161732 0.0024367 0
-0.00191062 0.00147877 0
-0.00161732 0.0024367 0
-0.00191062 0.00147877 0
-0.00635552 -0.00111359 0
-0.00677378 0.0058663 0
-0.00635552 -0.00111359 0
-0.00677378 0.0058663 0
0.0140512 -0.00235805 0
0.0169137 0.00416479 0
0 0 0
0 0 0
-0.00323443 0.00153436 0
-0.00578292 0.00141555 0
-0.00323443 0.00153436 0
-0.00578292 0.00141555 0
-0.00191062 0.00147877 0
-0.00179003 0.00433435 0
-0.00191062 0.00147877 0
-0.00179003 0.00433435 0
-0.00677378 0.0058663 0
-0.00511382 -0.00218974 0
-0.00677378 0.0058663 0
-0.00511382 -0.00218974 0
0.0169137 0.00416479 0
0.0181245 -0.0035607 0
0 0 0
0 0 0
-0.00578292 0.00141555 0
-0.0100504 0.00359544 0
-0.00578292 0.00141555 0
-0.0100504 0.00359544 0
-0.00179003 0.00433435 0
-0.00203173 0.00603763 0
-0.00179003 0.00433435 0
-0.00203173 0.00603763 0
-0.00511382 -0.00218974 0
-0.00204886 0.0093942 0
-0.00511382 -0.00218974 0
-0.00204886 0.0093942 0
0.0181245 -0.0035607 0
0.0197777 0.00487092 0
0 0 0
0 0 0
-0.0100504 0.00359544 0
-0.0169432 0.00448213 0
-0.0100504 0.00359544 0
-0.0169432 0.00448213 0
-0.00203173 0.00603763 0
-0.0078625 0.0167215 0
-0.00203173 0.00603763 0
-0.0078625 0.0167215 0
-0.00204886 0.0093942 0
0.00869491 0.00764298 0
-0.00204886 0.0093942 0
0.00869491 0.00764298 0
0.0197777 0.00487092 0
0.02168 -0.00240532 0
0 0 0
0 0 0
-0.0169432 0.00448213 0
-0.0266736 0.00704328 0
-0.0169432 0.00448213 0
-0.0266736 0.00704328 0
-0.0078625 0.0167215 0
-0.0120975 0.0110911 0
-0.0078625 0.0167215 0
-0.0120975 0.0110911 0
0.00869491 0.00764298 0
0.0194807 0.0129759 0
0.00869491 0.00764298 0
0.0194807 0.0129759 0
0.02168 -0.00240532 0
0.024828 0.00614322 0
0 0 0
0 0 0
-0.0266736 0.00704328 0
-0.0308702 -0.001957 0
-0.0266736 0.00704328 0
-0.0308702 -0.001957 0
-0.0120975 0.0110911 0
-0.0087632 -0.0053736 0
-0.0120975 0.0110911 0
-0.0087632 -0.0053736 0
0.0194807 0.0129759 0
0.0187309 -0.0106644 0
0.0194807 0.0129759 0
0.0187309 -0.0106644 0
0.024828 0.00614322 0
0.0264896 -0.00430709 0
0 0 0
0 0 0
-0.0308702 -0.001957 0
-0.0242278 -0.00556643 0
-0.0308702 -0.001957 0
-0.0242278 -0.00556643 0
-0.0087632 -0.0053736 0
-0.00824502 -0.0103537 0
-0.0087632 -0.0053736 0
-0.00824502 -0.0103537 0
0.0187309 -0.0106644 0
0.010839 0.00400342 0
0.0187309 -0.0106644 0
0.010839 0.00400342 0
0.0264896 -0.00430709 0
0.0275757 0.00487162 0
0 0 0
0 0 0
-0.0242278 -0.00556643 0
-0.00975578 -0.0115662 0
-0.0242278 -0.00556643 0
-0.00975578 -0.0115662 0
-0.00824502 -0.0103537 0
-0.00466659 -0.0281116 0
-0.00824502 -0.0103537 0
-0.00466659 -0.0281116 0
0.010839 0.00400342 0
-0.000682893 -0.0337878 0
0.010839 0.00400342 0
-0.000682893 -0.0337878 0
0.0275757 0.00487162 0
0.0210224 -0.0127834 0
0 0 0
0 0 0
-0.00975578 -0.0115662 0
0 0 0
-0.00975578 -0.0115662 0
0 0 0
-0.00466659 -0.0281116 0
0 0 0
-0.00466659 -0.0281116 0
0 0 0
-0.000682893 -0.0337878 0
0 0 0
-0.000682893 -0.0337878 0
0 0 0
0.0210224 -0.0127834 0
0 0 0
0 0 0
0.1875 0 0
0.000536293 -0.000165164 0
0.188028 5.39603e-05 0
0.000536293 -0.000165164 0
0.188028 5.39603e-05 0
0.00536983 -0.00281071 0
0.187326 0.00059915 0
0.00536983 -0.00281071 0
0.187326 0.00059915 0
0.00840381 0.00120145 0
0.186749 -2.15043e-05 0
0.00840381 0.00120145 0
0.186749 -2.15043e-05 0
0.0120217 -0.00336335 0
0.186158 0.000790157 0
0.0120217 -0.00336335 0
0.186158 0.000790157 0
0.0140512 0.00235805 0
0.185631 -0.000208697 0
0.0140512 0.00235805 0
0.185631 -0.000208697 0
0.0169137 -0.00416479 0
0.185074 0.00102409 0
0.0169137 -0.00416479 0
0.185074 0.00102409 0
0.0181245 0.0035607 0
0.184557 -0.0005144 0
0.0181245 0.0035607 0
0.184557 -0.0005144 0
0.0197777 -0.00487092 0
0.184148 0.00114665 0
0.0197777 -0.00487092 0
0.184148 0.00114665 0
0.02168 0.00240532 0
0.183773 -0.00112335 0
0.02168 0.00240532 0
0.183773 -0.00112335 0
0.024828 -0.00614322 0
0.183258 0.00178979 0
0.024828 -0.00614322 0
0.183258 0.00178979 0
0.0264896 0.00430709 0
0.18254 -0.00119344 0
0.0264896 0.00430709 0
0.18254 -0.00119344 0
0.0275757 -0.00487162 0
0.181451 0.00315981 0
0.0275757 -0.00487162 0
0.181451 0.00315981 0
0.0210224 0.0127834 0
0.180252 -0.00216255 0
0.0210224 0.0127834 0
0.180252 -0.00216255 0
0 0 0
0.185872 -0.00185043 0
0.1875 0 0
0.25 0 0
0.188028 5.39603e-05 0
0.249327 -1.60244e-18 0
0.188028 5.39603e-05 0
0.249327 -1.60244e-18 0
0.187326 0.00059915 0
0.249297 -4.40386e-17 0
0.187326 0.00059915 0
0.249297 -4.40386e-17 0
0.186749 -2.15043e-05 0
0.2492 8.10432e-18 0
0.186749 -2.15043e-05 0
0.2492 8.10432e-18 0
0.186158 0.000790157 0
0.249049 -2.70205e-17 0
0.186158 0.000790157 0
0.249049 -2.70205e-17 0
0.185631 -0.000208697 0
0.248942 -2.36681e-17 0
0.185631 -0.000208697 0
0.248942 -2.36681e-17 0
0.185074 0.00102409 0
0.2488 -5.91933e-17 0
0.185074 0.00102409 0
0.2488 -5.91933e-17 0
0.184557 -0.0005144 0
0.248787 -1.53703e-17 0
0.184557 -0.0005144 0
0.248787 -1.53703e-17 0
0.184148 0.00114665 0
0.248754 -7.14388e-18 0
0.184148 0.00114665 0
0.248754 -7.14388e-18 0
0.183773 -0.00112335 0
0.24903 -3.63337e-17 0
0.183773 -0.00112335 0
0.24903 -3.63337e-17 0
0.183258 0.00178979 0
0.249286 1.13535e-17 0
0.183258 0.00178979 0
0.249286 1.13535e-17 0
0.18254 -0.00119344 0
0.249553 2.73322e-17 0
0.18254 -0.00119344 0
0.249553 2.73322e-17 0
0.181451 0.00315981 0
0.249541 1.52466e-17 0
0.181451 0.00315981 0
0.249541 1.52466e-17 0
0.180252 -0.00216255 0
0.250097 4.11701e-17 0
0.180252 -0.00216255 0
0.250097 4.11701e-17 0
0.185872 -0.00185043 0
0.24845 3.9225e-17 0
0.25 0 0
0.1875 0 0
0.249327 -1.60244e-18 0
0.188028 -5.39603e-05 0
0.249327 -1.60244e-18 0
0.188028 -5.39603e-05 0
0.249297 -4.40386e-17 0
0.187326 -0.00059915 0
0.249297 -4.40386e-17 0
0.187326 -0.00059915 0
0.2492 8.10432e-18 0
0.186749 2.15043e-05 0
0.2492 8.10432e-18 0
0.186749 2.15043e-05 0
0.249049 -2.70205e-17 0
0.186158 -0.000790157 0
0.249049 -2.70205e-17 0
0.186158 -0.000790157 0
0.248942 -2.36681e-17 0
0.185631 0.000208697 0
0.248942 -2.36681e-17 0
0.185631 0.000208697 0
0.2488 -5.91933e-17 0
0.185074 -0.00102409 0
0.2488 -5.91933e-17 0
0.185074 -0.00102409 0
0.248787 -1.53703e-17 0
0.184557 0.0005144 0
0.248787 -1.53703e-17 0
0.184557 0.0005144 0
0.248754 -7.14388e-18 0
0.184148 -0.00114665 0
0.248754 -7.14388e-18 0
0.184148 -0.00114665 0
0.24903 -3.63337e-17 0
0.183773 0.00112335 0
0.24903 -3.63337e-17 0
0.183773 0.00112335 0
0.249286 1.13535e-17 0
0.183258 -0.00178979 0
0.249286 1.13535e-17 0
0.183258 -0.00178979 0
0.249553 2.73322e-17 0
0.18254 0.00119344 0
0.249553 2.73322e-17 0
0.18254 0.00119344 0
0.249541 1.52466e-17 0
0.181451 -0.00315981 0
0.249541 1.52466e-17 0
0.181451 -0.00315981 0
0.250097 4.11701e-17 0
0.180252 0.00216255 0
0.250097 4.11701e-17 0
0.180252 0.00216255 0
0.24845 3.9225e-17 0
0.185872 0.00185043 0
0.1875 0 0
0 0 0
0.188028 -5.39603e-05 0
0.000536293 0.000165164 0
0.188028 -5.39603e-05 0
0.000536293 0.000165164 0
0.187326 -0.00059915 0
0.00536983 0.00281071 0
0.187326 -0.00059915 0
0.00536983 0.00281071 0
0.186749 2.15043e-05 0
0.00840381 -0.00120145 0
0.186749 2.15043e-05 0
0.00840381 -0.00120145 0
0.186158 -0.000790157 0
0.0120217 0.00336335 0
0.186158 -0.000790157 0
0.0120217 0.00336335 0
0.185631 0.000208697 0
0.0140512 -0.00235805 0
0.185631 0.000208697 0
0.0140512 -0.00235805 0
0.185074 -0.00102409 0
0.0169137 0.00416479 0
0.185074 -0.00102409 0
0.0169137 0.00416479 0
0.184557 0.0005144 0
0.0181245 -0.0035607 0
0.184557 0.0005144 0
0.0181245 -0.0035607 0
0.184148 -0.00114665 0
0.0197777 0.00487092 0
0.184148 -0.00114665 0
0.0197777 0.00487092 0
0.183773 0.00112335 0
0.02168 -0.00240532 0
0.183773 0.00112335 0
0.02168 -0.00240532 0
0.183258 -0.00178979 0
0.024828 0.00614322 0
0.183258 -0.00178979 0
0.024828 0.00614322 0
0.18254 0.00119344 0
0.0264896 -0.00430709 0
0.18254 0.00119344 0
0.0264896 -0.00430709 0
0.181451 -0.00315981 0
0.0275757 0.00487162 0
0.181451 -0.00315981 0
0.0275757 0.00487162 0
0.180252 0.00216255 0
0.0210224 -0.0127834 0
0.180252 0.00216255 0
0.0210224 -0.0127834 0
0.185872 0.00185043 0
0 0 0
0 0 0
0 0 0
0 0 0
0.000314829 0.000363275 0
0 0 0
0.000314829 0.000363275 0
0 0 0
0.000323888 -0.00032745 0
0 0 0
0.000323888 -0.00032745 0
0 0 0
-1.44022e-05 -5.87585e-05 0
0 0 0
-1.44022e-05 -5.87585e-05 0
0 0 0
-0.00081224 -0.000852508 0
0 0 0
-0.00081224 -0.000852508 0
0 0 0
-0.00173426 -0.000207941 0
0 0 0
-0.00173426 -0.000207941 0
0 0 0
-0.00323443 -0.00153436 0
0 0 0
-0.00323443 -0.00153436 0
0 0 0
-0.00578292 -0.00141555 0
0 0 0
-0.00578292 -0.00141555 0
0 0 0
-0.0100504 -0.00359544 0
0 0 0
-0.0100504 -0.00359544 0
0 0 0
-0.0169432 -0.00448213 0
0 0 0
-0.0169432 -0.00448213 0
0 0 0
-0.0266736 -0.00704328 0
0 0 0
-0.0266736 -0.00704328 0
0 0 0
-0.0308702 0.001957 0
0 0 0
-0.0308702 0.001957 0
0 0 0
-0.0242278 0.00556643 0
0 0 0
-0.0242278 0.00556643 0
0 0 0
-0.00975578 0.0115662 0
0 0 0
-0.00975578 0.0115662 0
0 0 0
0 0 0
0 0 0
0 0 0
0.000314829 0.000363275 0
-0.000171623 0.000478671 0
0.000314829 0.000363275 0
-0.000171623 0.000478671 0
0.000323888 -0.00032745 0
0.000427316 0.000208069 0
0.000323888 -0.00032745 0
0.000427316 0.000208069 0
-1.44022e-05 -5.87585e-05 0
-0.000168324 -0.00176588 0
-1.44022e-05 -5.87585e-05 0
-0.000168324 -0.00176588 0
-0.00081224 -0.000852508 0
-0.000733975 -0.00079856 0
-0.00081224 -0.000852508 0
-0.000733975 -0.00079856 0
-0.00173426 -0.000207941 0
-0.00161732 -0.0024367 0
-0.00173426 -0.000207941 0
-0.00161732 -0.0024367 0
-0.00323443 -0.00153436 0
-0.00191062 -0.00147877 0
-0.00323443 -0.00153436 0
-0.00191062 -0.00147877 0
-0.00578292 -0.00141555 0
-0.00179003 -0.00433435 0
-0.00578292 -0.00141555 0
-0.00179003 -0.00433435 0
-0.0100504 -0.00359544 0
-0.00203173 -0.00603763 0
-0.0100504 -0.00359544 0
-0.00203173 -0.00603763 0
-0.0169432 -0.00448213 0
-0.0078625 -0.0167215 0
-0.0169432 -0.00448213 0
-0.0078625 -0.0167215 0
-0.0266736 -0.00704328 0
-0.0120975 -0.0110911 0
-0.0266736 -0.00704328 0
-0.0120975 -0.0110911 0
-0.0308702 0.001957 0
-0.0087632 0.0053736 0
-0.0308702 0.001957 0
-0.0087632 0.0053736 0
-0.0242278 0.00556643 0
-0.00824502 0.0103537 0
-0.0242278 0.00556643 0
-0.00824502 0.0103537 0
-0.00975578 0.0115662 0
-0.00466659 0.0281116 0
-0.00975578 0.0115662 0
-0.00466659 0.0281116 0
0 0 0
0 0 0
0 0 0
0 0 0
-0.000171623 0.000478671 0
-0.000242172 2.01313e-05 0
-0.000171623 0.000478671 0
-0.000242172 2.01313e-05 0
0.000427316 0.000208069 0
-0.00445565 -0.00347087 0
0.000427316 0.000208069 0
-0.00445565 -0.00347087 0
-0.000168324 -0.00176588 0
-0.00554263 1.529e-05 0
-0.000168324 -0.00176588 0
-0.00554263 1.529e-05 0
-0.000733975 -0.00079856 0
-0.00686537 -0.00472863 0
-0.000733975 -0.00079856 0
-0.00686537 -0.00472863 0
-0.00161732 -0.0024367 0
-0.00635552 0.00111359 0
-0.00161732 -0.0024367 0
-0.00635552 0.00111359 0
-0.00191062 -0.00147877 0
-0.00677378 -0.0058663 0
-0.00191062 -0.00147877 0
-0.00677378 -0.0058663 0
-0.00179003 -0.00433435 0
-0.00511382 0.00218974 0
-0.00179003 -0.00433435 0
-0.00511382 0.00218974 0
-0.00203173 -0.00603763 0
-0.00204886 -0.0093942 0
-0.00203173 -0.00603763 0
-0.00204886 -0.0093942 0
-0.0078625 -0.0167215 0
0.00869491 -0.00764298 0
-0.0078625 -0.0167215 0
0.00869491 -0.00764298 0
-0.0120975 -0.0110911 0
0.0194807 -0.0129759 0
-0.0120975 -0.0110911 0
0.0194807 -0.0129759 0
-0.0087632 0.0053736 0
0.0187309 0.0106644 0
-0.0087632 0.0053736 0
0.0187309 0.0106644 0
-0.00824502 0.0103537 0
0.010839 -0.00400342 0
-0.00824502 0.0103537 0
0.010839 -0.00400342 0
-0.00466659 0.0281116 0
-0.000682893 0.0337878 0
-0.00466659 0.0281116 0
-0.000682893 0.0337878 0
0 0 0
0 0 0
0 0 0
0 0 0
-0.000242172 2.01313e-05 0
0.000536293 -0.000165164 0
-0.000242172 2.01313e-05 0
0.000536293 -0.000165164 0
-0.00445565 -0.00347087 0
0.00536983 -0.00281071 0
-0.00445565 -0.00347087 0
0.00536983 -0.00281071 0
-0.00554263 1.529e-05 0
0.00840381 0.00120145 0
-0.00554263 1.529e-05 0
0.00840381 0.00120145 0
-0.00686537 -0.00472863 0
0.0120217 -0.00336335 0
-0.00686537 -0.00472863 0
0.0120217 -0.00336335 0
-0.00635552 0.00111359 0
0.0140512 0.00235805 0
-0.00635552 0.00111359 0
0.0140512 0.00235805 0
-0.00677378 -0.0058663 0
0.0169137 -0.00416479 0
-0.00677378 -0.0058663 0
0.0169137 -0.00416479 0
-0.00511382 0.00218974 0
0.0181245 0.0035607 0
-0.00511382 0.00218974 0
0.0181245 0.0035607 0
-0.00204886 -0.0093942 0
0.0197777 -0.00487092 0
-0.00204886 -0.0093942 0
0.0197777 -0.00487092 0
0.00869491 -0.00764298 0
0.02168 0.00240532 0
0.00869491 -0.00764298 0
0.02168 0.00240532 0
0.0194807 -0.0129759 0
0.024828 -0.00614322 0
0.0194807 -0.0129759 0
0.024828 -0.00614322 0
0.0187309 0.0106644 0
0.0264896 0.00430709 0
0.0187309 0.0106644 0
0.0264896 0.00430709 0
0.010839 -0.00400342 0
0.0275757 -0.00487162 0
0.010839 -0.00400342 0
0.0275757 -0.00487162 0
-0.000682893 0.0337878 0
0.0210224 0.0127834 0
-0.000682893 0.0337878 0
0.0210224 0.0127834 0
0 0 0
0 0 0
SCALARS pressure double 1
LOOKUP_TABLE default