# vtk DataFile Version 3.0
#This file was generated by the deal.II library on 2026/3/26 at 14:59:20
ASCII
DATASET UNSTRUCTURED_GRID

POINTS 10128 double
0 0 0
0.214286 0 0
0 0.25 0
0.214286 0.25 0
0 0.25 0
0.214286 0.25 0
0 0.5 0
0.214286 0.5 0
0.214286 0 0
0.428571 0 0
0.214286 0.25 0
0.428571 0.25 0
0.214286 0.25 0
0.428571 0.25 0
0.214286 0.5 0
0.428571 0.5 0
0.428571 0 0
0.642857 0 0
0.428571 0.25 0
0.642857 0.25 0
0.428571 0.25 0
0.642857 0.25 0
0.428571 0.5 0
0.642857 0.5 0
0.642857 0 0
0.857143 0 0
0.642857 0.25 0
0.857143 0.25 0
0.642857 0.25 0
0.857143 0.25 0
0.642857 0.5 0
0.857143 0.5 0
0.857143 0 0
1.07143 0 0
0.857143 0.25 0
1.07143 0.25 0
0.857143 0.25 0
1.07143 0.25 0
0.857143 0.5 0
1.07143 0.5 0
1.07143 0 0
1.28571 0 0
1.07143 0.25 0
1.28571 0.25 0
1.07143 0.25 0
1.28571 0.25 0
1.07143 0.5 0
1.28571 0.5 0
1.28571 0 0
1.5 0 0
1.28571 0.25 0
1.5 0.25 0
1.28571 0.25 0
1.5 0.25 0
1.28571 0.5 0
1.5 0.5 0
0 3 0
0 2.75 0
0.214286 3 0
0.214286 2.75 0
0.214286 3 0
0.214286 2.75 0
0.428571 3 0
0.428571 2.75 0
0.428571 3 0
0.428571 2.75 0
0.642857 3 0
0.642857 2.75 0
0.642857 3 0
0.642857 2.75 0
0.857143 3 0
0.857143 2.75 0
0.857143 3 0
0.857143 2.75 0
1.07143 3 0
1.07143 2.75 0
1.07143 3 0
1.07143 2.75 0
1.28571 3 0
1.28571 2.75 0
1.28571 3 0
1.28571 2.75 0
1.5 3 0
1.5 2.75 0
0 2.75 0
0 2.5 0
0.214286 2.75 0
0.214286 2.5 0
0.214286 2.75 0
0.214286 2.5 0
0.428571 2.75 0
0.428571 2.5 0
0.428571 2.75 0
0.428571 2.5 0
0.642857 2.75 0
0.642857 2.5 0
0.642857 2.75 0
0.642857 2.5 0
0.857143 2.75 0
0.857143 2.5 0
0.857143 2.75 0
0.857143 2.5 0
1.07143 2.75 0
1.07143 2.5 0
1.07143 2.75 0
1.07143 2.5 0
1.28571 2.75 0
1.28571 2.5 0
1.28571 2.75 0
1.28571 2.5 0
1.5 2.75 0
1.5 2.5 0
0 0.5 0
0.107143 0.5 0
0 0.625 0
0.107143 0.625 0
0.107143 0.5 0
0.214286 0.5 0
0.107143 0.625 0
0.214286 0.625 0
0 0.625 0
0.107143 0.625 0
0 0.75 0
0.107143 0.75 0
0.107143 0.625 0
0.214286 0.625 0
0.107143 0.75 0
0.214286 0.75 0
0.214286 0.5 0
0.321429 0.5 0
0.214286 0.625 0
0.321429 0.625 0
0.321429 0.5 0
0.428571 0.5 0
0.321429 0.625 0
0.428571 0.625 0
0.214286 0.625 0
0.321429 0.625 0
0.214286 0.75 0
0.321429 0.75 0
0.321429 0.625 0
0.428571 0.625 0
0.321429 0.75 0
0.428571 0.75 0
0.428571 0.5 0
0.535714 0.5 0
0.428571 0.625 0
0.535714 0.625 0
0.535714 0.5 0
0.642857 0.5 0
0.535714 0.625 0
0.642857 0.625 0
0.428571 0.625 0
0.535714 0.625 0
0.428571 0.75 0
0.535714 0.75 0
0.535714 0.625 0
0.642857 0.625 0
0.535714 0.75 0
0.642857 0.75 0
0.642857 0.5 0
0.75 0.5 0
0.642857 0.625 0
0.75 0.625 0
0.75 0.5 0
0.857143 0.5 0
0.75 0.625 0
0.857143 0.625 0
0.642857 0.625 0
0.75 0.625 0
0.642857 0.75 0
0.75 0.75 0
0.75 0.625 0
0.857143 0.625 0
0.75 0.75 0
0.857143 0.75 0
0.857143 0.5 0
0.964286 0.5 0
0.857143 0.625 0
0.964286 0.625 0
0.964286 0.5 0
1.07143 0.5 0
0.964286 0.625 0
1.07143 0.625 0
0.857143 0.625 0
0.964286 0.625 0
0.857143 0.75 0
0.964286 0.75 0
0.964286 0.625 0
1.07143 0.625 0
0.964286 0.75 0
1.07143 0.75 0
1.07143 0.5 0
1.17857 0.5 0
1.07143 0.625 0
1.17857 0.625 0
1.17857 0.5 0
1.28571 0.5 0
1.17857 0.625 0
1.28571 0.625 0
1.07143 0.625 0
1.17857 0.625 0
1.07143 0.75 0
1.17857 0.75 0
1.17857 0.625 0
1.28571 0.625 0
1.17857 0.75 0
1.28571 0.75 0
1.28571 0.5 0
1.39286 0.5 0
1.28571 0.625 0
1.39286 0.625 0
1.39286 0.5 0
1.5 0.5 0
1.39286 0.625 0
1.5 0.625 0
1.28571 0.625 0
1.39286 0.625 0
1.28571 0.75 0
1.39286 0.75 0
1.39286 0.625 0
1.5 0.625 0
1.39286 0.75 0
1.5 0.75 0
1.5 0.5 0
1.60714 0.5 0
1.5 0.625 0
1.60714 0.625 0
1.60714 0.5 0
1.71429 0.5 0
1.60714 0.625 0
1.71429 0.625 0
1.5 0.625 0
1.60714 0.625 0
1.5 0.75 0
1.60714 0.75 0
1.60714 0.625 0
1.71429 0.625 0
1.60714 0.75 0
1.71429 0.75 0
2.14286 0.5 0
2.25 0.5 0
2.14286 0.625 0
2.25 0.625 0
2.25 0.5 0
2.35714 0.5 0
2.25 0.625 0
2.35714 0.625 0
2.14286 0.625 0
2.25 0.625 0
2.14286 0.75 0
2.25 0.75 0
2.25 0.625 0
2.35714 0.625 0
2.25 0.75 0
2.35714 0.75 0
2.35714 0.5 0
2.46429 0.5 0
2.35714 0.625 0
2.46429 0.625 0
2.46429 0.5 0
2.57143 0.5 0
2.46429 0.625 0
2.57143 0.625 0
2.35714 0.625 0
2.46429 0.625 0
2.35714 0.75 0
2.46429 0.75 0
2.46429 0.625 0
2.57143 0.625 0
2.46429 0.75 0
2.57143 0.75 0
0 1.75 0
0 1.625 0
0.107143 1.75 0
0.107143 1.625 0
0 1.625 0
0 1.5 0
0.107143 1.625 0
0.107143 1.5 0
0.107143 1.75 0
0.107143 1.625 0
0.214286 1.75 0
0.214286 1.625 0
0.107143 1.625 0
0.107143 1.5 0
0.214286 1.625 0
0.214286 1.5 0
0.214286 1.75 0
0.214286 1.625 0
0.321429 1.75 0
0.321429 1.625 0
0.214286 1.625 0
0.214286 1.5 0
0.321429 1.625 0
0.321429 1.5 0
0.321429 1.75 0
0.321429 1.625 0
0.428571 1.75 0
0.428571 1.625 0
0.321429 1.625 0
0.321429 1.5 0
0.428571 1.625 0
0.428571 1.5 0
0.428571 1.75 0
0.428571 1.625 0
0.535714 1.75 0
0.535714 1.625 0
0.428571 1.625 0
0.428571 1.5 0
0.535714 1.625 0
0.535714 1.5 0
0.535714 1.75 0
0.535714 1.625 0
0.642857 1.75 0
0.642857 1.625 0
0.535714 1.625 0
0.535714 1.5 0
0.642857 1.625 0
0.642857 1.5 0
0.642857 1.75 0
0.642857 1.625 0
0.75 1.75 0
0.75 1.625 0
0.642857 1.625 0
0.642857 1.5 0
0.75 1.625 0
0.75 1.5 0
0.75 1.75 0
0.75 1.625 0
0.857143 1.75 0
0.857143 1.625 0
0.75 1.625 0
0.75 1.5 0
0.857143 1.625 0
0.857143 1.5 0
0.857143 1.75 0
0.857143 1.625 0
0.964286 1.75 0
0.964286 1.625 0
0.857143 1.625 0
0.857143 1.5 0
0.964286 1.625 0
0.964286 1.5 0
0.964286 1.75 0
0.964286 1.625 0
1.07143 1.75 0
1.07143 1.625 0
0.964286 1.625 0
0.964286 1.5 0
1.07143 1.625 0
1.07143 1.5 0
1.07143 1.75 0
1.07143 1.625 0
1.17857 1.75 0
1.17857 1.625 0
1.07143 1.625 0
1.07143 1.5 0
1.17857 1.625 0
1.17857 1.5 0
1.17857 1.75 0
1.17857 1.625 0
1.28571 1.75 0
1.28571 1.625 0
1.17857 1.625 0
1.17857 1.5 0
1.28571 1.625 0
1.28571 1.5 0
1.28571 1.75 0
1.28571 1.625 0
1.39286 1.75 0
1.39286 1.625 0
1.28571 1.625 0
1.28571 1.5 0
1.39286 1.625 0
1.39286 1.5 0
1.39286 1.75 0
1.39286 1.625 0
1.5 1.75 0
1.5 1.625 0
1.39286 1.625 0
1.39286 1.5 0
1.5 1.625 0
1.5 1.5 0
1.5 1.75 0
1.5 1.625 0
1.60714 1.75 0
1.60714 1.625 0
1.5 1.625 0
1.5 1.5 0
1.60714 1.625 0
1.60714 1.5 0
1.60714 1.75 0
1.60714 1.625 0
1.71429 1.75 0
1.71429 1.625 0
1.60714 1.625 0
1.60714 1.5 0
1.71429 1.625 0
1.71429 1.5 0
1.71429 1.75 0
1.71429 1.625 0
1.82143 1.75 0
1.82143 1.625 0
1.71429 1.625 0
1.71429 1.5 0
1.82143 1.625 0
1.82143 1.5 0
1.82143 1.75 0
1.82143 1.625 0
1.92857 1.75 0
1.92857 1.625 0
1.82143 1.625 0
1.82143 1.5 0
1.92857 1.625 0
1.92857 1.5 0
1.92857 1.75 0
1.92857 1.625 0
2.03571 1.75 0
2.03571 1.625 0
1.92857 1.625 0
1.92857 1.5 0
2.03571 1.625 0
2.03571 1.5 0
2.03571 1.75 0
2.03571 1.625 0
2.14286 1.75 0
2.14286 1.625 0
2.03571 1.625 0
2.03571 1.5 0
2.14286 1.625 0
2.14286 1.5 0
2.14286 1.75 0
2.14286 1.625 0
2.25 1.75 0
2.25 1.625 0
2.14286 1.625 0
2.14286 1.5 0
2.25 1.625 0
2.25 1.5 0
2.25 1.75 0
2.25 1.625 0
2.35714 1.75 0
2.35714 1.625 0
2.25 1.625 0
2.25 1.5 0
2.35714 1.625 0
2.35714 1.5 0
2.35714 1.75 0
2.35714 1.625 0
2.46429 1.75 0
2.46429 1.625 0
2.35714 1.625 0
2.35714 1.5 0
2.46429 1.625 0
2.46429 1.5 0
2.46429 1.75 0
2.46429 1.625 0
2.57143 1.75 0
2.57143 1.625 0
2.46429 1.625 0
2.46429 1.5 0
2.57143 1.625 0
2.57143 1.5 0
2.57143 1.75 0
2.57143 1.625 0
2.67857 1.75 0
2.67857 1.625 0
2.57143 1.625 0
2.57143 1.5 0
2.67857 1.625 0
2.67857 1.5 0
2.67857 1.75 0
2.67857 1.625 0
2.78571 1.75 0
2.78571 1.625 0
2.67857 1.625 0
2.67857 1.5 0
2.78571 1.625 0
2.78571 1.5 0
0 1.5 0
0 1.375 0
0.107143 1.5 0
0.107143 1.375 0
0 1.375 0
0 1.25 0
0.107143 1.375 0
0.107143 1.25 0
0.107143 1.5 0
0.107143 1.375 0
0.214286 1.5 0
0.214286 1.375 0
0.107143 1.375 0
0.107143 1.25 0
0.214286 1.375 0
0.214286 1.25 0
0.214286 1.5 0
0.214286 1.375 0
0.321429 1.5 0
0.321429 1.375 0
0.214286 1.375 0
0.214286 1.25 0
0.321429 1.375 0
0.321429 1.25 0
0.321429 1.5 0
0.321429 1.375 0
0.428571 1.5 0
0.428571 1.375 0
0.321429 1.375 0
0.321429 1.25 0
0.428571 1.375 0
0.428571 1.25 0
0.428571 1.5 0
0.428571 1.375 0
0.535714 1.5 0
0.535714 1.375 0
0.428571 1.375 0
0.428571 1.25 0
0.535714 1.375 0
0.535714 1.25 0
0.535714 1.5 0
0.535714 1.375 0
0.642857 1.5 0
0.642857 1.375 0
0.535714 1.375 0
0.535714 1.25 0
0.642857 1.375 0
0.642857 1.25 0
0.642857 1.5 0
0.642857 1.375 0
0.75 1.5 0
0.75 1.375 0
0.642857 1.375 0
0.642857 1.25 0
0.75 1.375 0
0.75 1.25 0
0.75 1.5 0
0.75 1.375 0
0.857143 1.5 0
0.857143 1.375 0
0.75 1.375 0
0.75 1.25 0
0.857143 1.375 0
0.857143 1.25 0
0.857143 1.5 0
0.857143 1.375 0
0.964286 1.5 0
0.964286 1.375 0
0.857143 1.375 0
0.857143 1.25 0
0.964286 1.375 0
0.964286 1.25 0
0.964286 1.5 0
0.964286 1.375 0
1.07143 1.5 0
1.07143 1.375 0
0.964286 1.375 0
0.964286 1.25 0
1.07143 1.375 0
1.07143 1.25 0
1.07143 1.5 0
1.07143 1.375 0
1.17857 1.5 0
1.17857 1.375 0
1.07143 1.375 0
1.07143 1.25 0
1.17857 1.375 0
1.17857 1.25 0
1.17857 1.5 0
1.17857 1.375 0
1.28571 1.5 0
1.28571 1.375 0
1.17857 1.375 0
1.17857 1.25 0
1.28571 1.375 0
1.28571 1.25 0
1.28571 1.5 0
1.28571 1.375 0
1.39286 1.5 0
1.39286 1.375 0
1.28571 1.375 0
1.28571 1.25 0
1.39286 1.375 0
1.39286 1.25 0
1.39286 1.5 0
1.39286 1.375 0
1.5 1.5 0
1.5 1.375 0
1.39286 1.375 0
1.39286 1.25 0
1.5 1.375 0
1.5 1.25 0
1.5 1.5 0
1.5 1.375 0
1.60714 1.5 0
1.60714 1.375 0
1.5 1.375 0
1.5 1.25 0
1.60714 1.375 0
1.60714 1.25 0
1.60714 1.5 0
1.60714 1.375 0
1.71429 1.5 0
1.71429 1.375 0
1.60714 1.375 0
1.60714 1.25 0
1.71429 1.375 0
1.71429 1.25 0
1.71429 1.5 0
1.71429 1.375 0
1.82143 1.5 0
1.82143 1.375 0
1.71429 1.375 0
1.71429 1.25 0
1.82143 1.375 0
1.82143 1.25 0
1.82143 1.5 0
1.82143 1.375 0
1.92857 1.5 0
1.92857 1.375 0
1.82143 1.375 0
1.82143 1.25 0
1.92857 1.375 0
1.92857 1.25 0
1.92857 1.5 0
1.92857 1.375 0
2.03571 1.5 0
2.03571 1.375 0
1.92857 1.375 0
1.92857 1.25 0
2.03571 1.375 0
2.03571 1.25 0
2.03571 1.5 0
2.03571 1.375 0
2.14286 1.5 0
2.14286 1.375 0
2.03571 1.375 0
2.03571 1.25 0
2.14286 1.375 0
2.14286 1.25 0
2.14286 1.5 0
2.14286 1.375 0
2.25 1.5 0
2.25 1.375 0
2.14286 1.375 0
2.14286 1.25 0
2.25 1.375 0
2.25 1.25 0
2.25 1.5 0
2.25 1.375 0
2.35714 1.5 0
2.35714 1.375 0
2.25 1.375 0
2.25 1.25 0
2.35714 1.375 0
2.35714 1.25 0
2.35714 1.5 0
2.35714 1.375 0
2.46429 1.5 0
2.46429 1.375 0
2.35714 1.375 0
2.35714 1.25 0
2.46429 1.375 0
[...]
POINT_DATA 10128
VECTORS velocity double
0 0 0
0 0 0
0 0 0
0.000140035 -0.000191053 0
0 0 0
0.000140035 -0.000191053 0
0 0 0
-0.000686608 0.000427666 0
0 0 0
0 0 0
0.000140035 -0.000191053 0
0.000429481 -0.000183264 0
0.000140035 -0.000191053 0
0.000429481 -0.000183264 0
-0.000686608 0.000427666 0
-0.00192105 0.000289813 0
0 0 0
0 0 0
0.000429481 -0.000183264 0
0.000813932 -0.000297359 0
0.000429481 -0.000183264 0
0.000813932 -0.000297359 0
-0.00192105 0.000289813 0
-0.00291371 -7.02559e-05 0
0 0 0
0 0 0
0.000813932 -0.000297359 0
0.00132406 -0.000322916 0
0.000813932 -0.000297359 0
0.00132406 -0.000322916 0
-0.00291371 -7.02559e-05 0
-0.00347874 -0.00049122 0
0 0 0
0 0 0
0.00132406 -0.000322916 0
0.00170033 -0.000132267 0
0.00132406 -0.000322916 0
0.00170033 -0.000132267 0
-0.00347874 -0.00049122 0
-0.00333552 -0.000569102 0
0 0 0
0 0 0
0.00170033 -0.000132267 0
0.00162855 0.000210188 0
0.00170033 -0.000132267 0
0.00162855 0.000210188 0
-0.00333552 -0.000569102 0
-0.00292127 0.000256474 0
0 0 0
0 0 0
0.00162855 0.000210188 0
0.000616655 0.000973397 0
0.00162855 0.000210188 0
0.000616655 0.000973397 0
-0.00292127 0.000256474 0
-0.00398943 0.003379 0
0 0 0
0 0 0
0 0 0
0.000140035 0.000191053 0
0 0 0
0.000140035 0.000191053 0
0 0 0
0.000429481 0.000183264 0
0 0 0
0.000429481 0.000183264 0
0 0 0
0.000813932 0.000297359 0
0 0 0
0.000813932 0.000297359 0
0 0 0
0.00132406 0.000322916 0
0 0 0
0.00132406 0.000322916 0
0 0 0
0.00170033 0.000132267 0
0 0 0
0.00170033 0.000132267 0
0 0 0
0.00162855 -0.000210188 0
0 0 0
0.00162855 -0.000210188 0
0 0 0
0.000616655 -0.000973397 0
0 0 0
0 0 0
0.000140035 0.000191053 0
-0.000686608 -0.000427666 0
0.000140035 0.000191053 0
-0.000686608 -0.000427666 0
0.000429481 0.000183264 0
-0.00192105 -0.000289813 0
0.000429481 0.000183264 0
-0.00192105 -0.000289813 0
0.000813932 0.000297359 0
-0.00291371 7.02559e-05 0
0.000813932 0.000297359 0
-0.00291371 7.02559e-05 0
0.00132406 0.000322916 0
-0.00347874 0.00049122 0
0.00132406 0.000322916 0
-0.00347874 0.00049122 0
0.00170033 0.000132267 0
-0.00333552 0.000569102 0
0.00170033 0.000132267 0
-0.00333552 0.000569102 0
0.00162855 -0.000210188 0
-0.00292127 -0.000256474 0
0.00162855 -0.000210188 0
-0.00292127 -0.000256474 0
0.000616655 -0.000973397 0
-0.00398943 -0.003379 0
0 0 0
-0.000173461 0.000215915 0
0 0 0
-0.000485286 0.000984104 0
-0.000173461 0.000215915 0
-0.000686608 0.000427666 0
-0.000485286 0.000984104 0
-0.00145799 0.001398 0
0 0 0
-0.000485286 0.000984104 0
0 0 0
-0.000782738 0.00247898 0
-0.000485286 0.000984104 0
-0.00145799 0.001398 0
-0.000782738 0.00247898 0
-0.00210297 0.00260661 0
-0.000686608 0.000427666 0
-0.00133627 0.000359565 0
-0.00145799 0.001398 0
-0.00243474 0.00129503 0
-0.00133627 0.000359565 0
-0.00192105 0.000289813 0
-0.00243474 0.00129503 0
-0.00337771 0.00114544 0
-0.00145799 0.001398 0
-0.00243474 0.00129503 0
-0.00210297 0.00260661 0
-0.00306656 0.00237955 0
-0.00243474 0.00129503 0
-0.00337771 0.00114544 0
-0.00306656 0.00237955 0
-0.00387101 0.00212874 0
-0.00192105 0.000289813 0
-0.00244538 0.000110234 0
-0.00337771 0.00114544 0
-0.00428384 0.000932033 0
-0.00244538 0.000110234 0
-0.00291371 -7.02559e-05 0
-0.00428384 0.000932033 0
-0.00515898 0.000683461 0
-0.00337771 0.00114544 0
-0.00428384 0.000932033 0
-0.00387101 0.00212874 0
-0.00460811 0.00189384 0
-0.00428384 0.000932033 0
-0.00515898 0.000683461 0
-0.00460811 0.00189384 0
-0.00535113 0.00163578 0
-0.00291371 -7.02559e-05 0
-0.00327508 -0.00028156 0
-0.00515898 0.000683461 0
-0.00598455 0.000356934 0
-0.00327508 -0.00028156 0
-0.00347874 -0.00049122 0
-0.00598455 0.000356934 0
-0.00673933 -4.73192e-06 0
-0.00515898 0.000683461 0
-0.00598455 0.000356934 0
-0.00535113 0.00163578 0
-0.00616344 0.00133928 0
-0.00598455 0.000356934 0
-0.00673933 -4.73192e-06 0
-0.00616344 0.00133928 0
-0.00707682 0.000979731 0
-0.00347874 -0.00049122 0
-0.00350526 -0.000532426 0
-0.00673933 -4.73192e-06 0
-0.0072949 -0.000333861 0
-0.00350526 -0.000532426 0
-0.00333552 -0.000569102 0
-0.0072949 -0.000333861 0
-0.00758607 -0.000620185 0
-0.00673933 -4.73192e-06 0
-0.0072949 -0.000333861 0
-0.00707682 0.000979731 0
-0.00810354 0.000544193 0
-0.0072949 -0.000333861 0
-0.00758607 -0.000620185 0
-0.00810354 0.000544193 0
-0.00912193 4.11814e-05 0
-0.00333552 -0.000569102 0
-0.0030978 -0.000161249 0
-0.00758607 -0.000620185 0
-0.00746819 -0.00051816 0
-0.0030978 -0.000161249 0
-0.00292127 0.000256474 0
-0.00746819 -0.00051816 0
-0.00709105 -2.33423e-05 0
-0.00758607 -0.000620185 0
-0.00746819 -0.00051816 0
-0.00912193 4.11814e-05 0
-0.00988264 -0.000422857 0
-0.00746819 -0.00051816 0
-0.00709105 -2.33423e-05 0
-0.00988264 -0.000422857 0
-0.00996892 -0.000456071 0
-0.00292127 0.000256474 0
-0.00311484 0.0018013 0
-0.00709105 -2.33423e-05 0
-0.00649238 0.0016203 0
-0.00311484 0.0018013 0
-0.00398943 0.003379 0
-0.00649238 0.0016203 0
-0.00601692 0.00403782 0
-0.00709105 -2.33423e-05 0
-0.00649238 0.0016203 0
-0.00996892 -0.000456071 0
-0.00912677 0.000370937 0
-0.00649238 0.0016203 0
-0.00601692 0.00403782 0
-0.00912677 0.000370937 0
-0.0072769 0.0025722 0
-0.00398943 0.003379 0
-0.00560387 0.00786683 0
-0.00601692 0.00403782 0
-0.00553059 0.00853549 0
-0.00560387 0.00786683 0
-0.0074627 0.0132385 0
-0.00553059 0.00853549 0
-0.00431335 0.0133228 0
-0.00601692 0.00403782 0
-0.00553059 0.00853549 0
-0.0072769 0.0025722 0
-0.00435025 0.00601519 0
-0.00553059 0.00853549 0
-0.00431335 0.0133228 0
-0.00435025 0.00601519 0
-0.000377557 0.00978303 0
-0.00655235 0.0085532 0
-0.00587401 0.00422822 0
0.003264 0.00755768 0
0.00388956 0.00370115 0
-0.00587401 0.00422822 0
-0.00552802 1.76569e-05 0
0.00388956 0.00370115 0
0.00404014 -3.67126e-05 0
0.003264 0.00755768 0
0.00388956 0.00370115 0
0.0137676 0.00632655 0
0.0145914 0.00323867 0
0.00388956 0.00370115 0
0.00404014 -3.67126e-05 0
0.0145914 0.00323867 0
0.0145885 0.000250568 0
-0.00552802 1.76569e-05 0
-0.0054812 -0.00442587 0
0.00404014 -3.67126e-05 0
0.00364785 -0.00397087 0
-0.0054812 -0.00442587 0
-0.00568176 -0.00919825 0
0.00364785 -0.00397087 0
0.00260376 -0.00820422 0
0.00404014 -3.67126e-05 0
0.00364785 -0.00397087 0
0.0145885 0.000250568 0
0.0136896 -0.00275465 0
0.00364785 -0.00397087 0
0.00260376 -0.00820422 0
0.0136896 -0.00275465 0
0.0117162 -0.00590278 0
0.1875 0 0
0.234375 0 0
0.187464 0.0001174 0
0.234354 4.88384e-05 0
0.234375 0 0
0.25 0 0
0.234354 4.88384e-05 0
0.249981 8.86869e-17 0
0.187464 0.0001174 0
0.234354 4.88384e-05 0
0.187384 0.00017906 0
0.234295 8.37484e-05 0
0.234354 4.88384e-05 0
0.249981 8.86869e-17 0
0.234295 8.37484e-05 0
0.249927 -4.9894e-16 0
0.187384 0.00017906 0
0.234295 8.37484e-05 0
0.187298 0.000204877 0
0.234215 0.000103648 0
0.234295 8.37484e-05 0
0.249927 -4.9894e-16 0
0.234215 0.000103648 0
0.249848 -1.20099e-15 0
0.187298 0.000204877 0
0.234215 0.000103648 0
0.187216 0.000217314 0
0.234123 0.000113329 0
0.234215 0.000103648 0
0.249848 -1.20099e-15 0
0.234123 0.000113329 0
0.249755 -1.92998e-15 0
0.187216 0.000217314 0
0.234123 0.000113329 0
0.187136 0.000223462 0
0.234027 0.000119531 0
0.234123 0.000113329 0
0.249755 -1.92998e-15 0
0.234027 0.000119531 0
0.249653 -2.77275e-15 0
0.187136 0.000223462 0
0.234027 0.000119531 0
0.187059 0.000229643 0
0.233927 0.000123258 0
0.234027 0.000119531 0
0.249653 -2.77275e-15 0
0.233927 0.000123258 0
0.249547 -3.62611e-15 0
0.187059 0.000229643 0
0.233927 0.000123258 0
0.186982 0.000236337 0
0.233823 0.000128999 0
0.233927 0.000123258 0
0.249547 -3.62611e-15 0
0.233823 0.000128999 0
0.249436 -4.7797e-15 0
0.186982 0.000236337 0
0.233823 0.000128999 0
0.186904 0.000247955 0
0.233715 0.000134844 0
0.233823 0.000128999 0
0.249436 -4.7797e-15 0
0.233715 0.000134844 0
0.24932 -5.95651e-15 0
0.186904 0.000247955 0
0.233715 0.000134844 0
0.18682 0.000264555 0
0.233601 0.000143536 0
0.233715 0.000134844 0
0.24932 -5.95651e-15 0
0.233601 0.000143536 0
0.249197 -5.92572e-15 0
0.18682 0.000264555 0
0.233601 0.000143536 0
0.186727 0.000286503 0
0.233478 0.000153411 0
0.233601 0.000143536 0
0.249197 -5.92572e-15 0
0.233478 0.000153411 0
0.249067 -6.07133e-15 0
0.186727 0.000286503 0
0.233478 0.000153411 0
0.186621 0.000309007 0
0.233347 0.000162225 0
0.233478 0.000153411 0
0.249067 -6.07133e-15 0
0.233347 0.000162225 0
0.248929 -6.09655e-15 0
0.186621 0.000309007 0
0.233347 0.000162225 0
0.186499 0.000322508 0
0.233209 0.000164436 0
0.233347 0.000162225 0
0.248929 -6.09655e-15 0
0.233209 0.000164436 0
0.248789 -6.07181e-15 0
0.186499 0.000322508 0
0.233209 0.000164436 0
0.186368 0.000311435 0
0.233074 0.000154744 0
0.233209 0.000164436 0
0.248789 -6.07181e-15 0
0.233074 0.000154744 0
0.248653 -5.98548e-15 0
0.186368 0.000311435 0
0.233074 0.000154744 0
0.186241 0.000262227 0
0.232952 0.000127235 0
0.233074 0.000154744 0
0.248653 -5.98548e-15 0
0.232952 0.000127235 0
0.248534 -6.19752e-15 0
0.186241 0.000262227 0
0.232952 0.000127235 0
0.186143 0.000169636 0
0.232862 8.35578e-05 0
0.232952 0.000127235 0
0.248534 -6.19752e-15 0
0.232862 8.35578e-05 0
0.248444 -6.68224e-15 0
0.186143 0.000169636 0
0.232862 8.35578e-05 0
0.186101 5.06198e-05 0
0.232815 3.0429e-05 0
0.232862 8.35578e-05 0
0.248444 -6.68224e-15 0
0.232815 3.0429e-05 0
0.248395 -7.57813e-15 0
0.186101 5.06198e-05 0
0.232815 3.0429e-05 0
0.186128 -6.32773e-05 0
0.232815 -1.59158e-05 0
0.232815 3.0429e-05 0
0.248395 -7.57813e-15 0
0.232815 -1.59158e-05 0
0.248385 -8.20699e-15 0
0.186128 -6.32773e-05 0
0.232815 -1.59158e-05 0
0.186213 -0.000128086 0
0.232849 -4.04448e-05 0
0.232815 -1.59158e-05 0
0.248385 -8.20699e-15 0
0.232849 -4.04448e-05 0
0.248401 -8.28404e-15 0
0.186213 -0.000128086 0
0.232849 -4.04448e-05 0
0.186324 -0.000109819 0
0.23289 -2.39016e-05 0
0.232849 -4.04448e-05 0
0.248401 -8.28404e-15 0
0.23289 -2.39016e-05 0
0.248418 -7.18488e-15 0
0.186324 -0.000109819 0
0.23289 -2.39016e-05 0
0.186415 8.07182e-06 0
0.232899 3.63799e-05 0
0.23289 -2.39016e-05 0
0.248418 -7.18488e-15 0
0.232899 3.63799e-05 0
0.2484 -5.4295e-15 0
0.186415 8.07182e-06 0
0.232899 3.63799e-05 0
0.186442 0.000215077 0
0.232838 0.000144199 0
0.232899 3.63799e-05 0
0.2484 -5.4295e-15 0
0.232838 0.000144199 0
0.248309 -2.80849e-15 0
0.186442 0.000215077 0
0.232838 0.000144199 0
0.186369 0.000500866 0
0.232669 0.000286019 0
0.232838 0.000144199 0
0.248309 -2.80849e-15 0
0.232669 0.000286019 0
0.248111 -2.64438e-17 0
0.186369 0.000500866 0
0.232669 0.000286019 0
0.186163 0.000837649 0
0.232366 0.000456215 0
0.232669 0.000286019 0
0.248111 -2.64438e-17 0
0.232366 0.000456215 0
0.24778 2.37884e-15 0
0.186163 0.000837649 0
0.232366 0.000456215 0
0.185793 0.00120467 0
0.231913 0.000623573 0
0.232366 0.000456215 0
0.24778 2.37884e-15 0
0.231913 0.000623573 0
0.24731 4.31968e-15 0
0.185793 0.00120467 0
0.231913 0.000623573 0
0.185232 0.00152709 0
0.231322 0.000762801 0
0.231913 0.000623573 0
0.24731 4.31968e-15 0
0.231322 0.000762801 0
0.246717 5.40396e-15 0
0.185232 0.00152709 0
0.231322 0.000762801 0
0.184514 0.00166767 0
0.230648 0.000806467 0
0.231322 0.000762801 0
0.246717 5.40396e-15 0
0.230648 0.000806467 0
0.246045 6.15479e-15 0
0.25 0 0
0.234375 0 0
0.249981 8.86869e-17 0
0.234354 -4.88384e-05 0
0.234375 0 0
0.1875 0 0
0.234354 -4.88384e-05 0
0.187464 -0.0001174 0
0.249981 8.86869e-17 0
0.234354 -4.88384e-05 0
0.249927 -4.9894e-16 0
0.234295 -8.37484e-05 0
0.234354 -4.88384e-05 0
0.187464 -0.0001174 0
0.234295 -8.37484e-05 0
0.187384 -0.00017906 0
0.249927 -4.9894e-16 0
0.234295 -8.37484e-05 0
0.249848 -1.20099e-15 0
0.234215 -0.000103648 0
0.234295 -8.37484e-05 0
0.187384 -0.00017906 0
0.234215 -0.000103648 0
0.187298 -0.000204877 0
0.249848 -1.20099e-15 0
0.234215 -0.000103648 0
0.249755 -1.92998e-15 0
0.234123 -0.000113329 0
0.234215 -0.000103648 0
0.187298 -0.000204877 0
0.234123 -0.000113329 0
0.187216 -0.000217314 0
0.249755 -1.92998e-15 0
0.234123 -0.000113329 0
0.249653 -2.77275e-15 0
0.234027 -0.000119531 0
0.234123 -0.000113329 0
0.187216 -0.000217314 0
0.234027 -0.000119531 0
0.187136 -0.000223462 0
0.249653 -2.77275e-15 0
0.234027 -0.000119531 0
0.249547 -3.62611e-15 0
0.233927 -0.000123258 0
0.234027 -0.000119531 0
0.187136 -0.000223462 0
0.233927 -0.000123258 0
0.187059 -0.000229643 0
0.249547 -3.62611e-15 0
0.233927 -0.000123258 0
0.249436 -4.7797e-15 0
0.233823 -0.000128999 0
0.233927 -0.000123258 0
0.187059 -0.000229643 0
0.233823 -0.000128999 0
0.186982 -0.000236337 0
0.249436 -4.7797e-15 0
0.233823 -0.000128999 0
0.24932 -5.95651e-15 0
0.233715 -0.000134844 0
0.233823 -0.000128999 0
0.186982 -0.000236337 0
0.233715 -0.000134844 0
0.186904 -0.000247955 0
0.24932 -5.95651e-15 0
0.233715 -0.000134844 0
0.249197 -5.92572e-15 0
0.233601 -0.000143536 0
0.233715 -0.000134844 0
0.186904 -0.000247955 0
0.233601 -0.000143536 0
0.18682 -0.000264555 0
0.249197 -5.92572e-15 0
0.233601 -0.000143536 0
0.249067 -6.07133e-15 0
0.233478 -0.000153411 0
0.233601 -0.000143536 0
0.18682 -0.000264555 0
0.233478 -0.000153411 0
0.186727 -0.000286503 0
0.249067 -6.07133e-15 0
0.233478 -0.000153411 0
0.248929 -6.09655e-15 0
0.233347 -0.000162225 0
0.233478 -0.000153411 0
0.186727 -0.000286503 0
0.233347 -0.000162225 0
0.186621 -0.000309007 0
0.248929 -6.09655e-15 0
0.233347 -0.000162225 0
0.248789 -6.07181e-15 0
0.233209 -0.000164436 0
0.233347 -0.000162225 0
0.186621 -0.000309007 0
0.233209 -0.000164436 0
0.186499 -0.000322508 0
0.248789 -6.07181e-15 0
0.233209 -0.000164436 0
0.248653 -5.98548e-15 0
0.233074 -0.000154744 0
0.233209 -0.000164436 0
0.186499 -0.000322508 0
0.233074 -0.000154744 0
0.186368 -0.000311435 0
0.248653 -5.98548e-15 0
0.233074 -0.000154744 0
0.248534 -6.19752e-15 0
0.232952 -0.000127235 0
0.233074 -0.000154744 0
0.186368 -0.000311435 0
0.232952 -0.000127235 0
0.186241 -0.000262227 0
0.248534 -6.19752e-15 0
0.232952 -0.000127235 0
0.248444 -6.68224e-15 0
0.232862 -8.35578e-05 0
0.232952 -0.000127235 0
0.186241 -0.000262227 0
0.232862 -8.35578e-05 0
0.186143 -0.000169636 0
0.248444 -6.68224e-15 0
0.232862 -8.35578e-05 0
0.248395 -7.57813e-15 0
0.232815 -3.0429e-05 0
0.232862 -8.35578e-05 0
0.186143 -0.000169636 0
0.232815 -3.0429e-05 0
0.186101 -5.06198e-05 0
0.248395 -7.57813e-15 0
0.232815 -3.0429e-05 0
0.248385 -8.20699e-15 0
0.232815 1.59158e-05 0
0.232815 -3.0429e-05 0
0.186101 -5.06198e-05 0
0.232815 1.59158e-05 0
0.186128 6.32773e-05 0
0.248385 -8.20699e-15 0
0.232815 1.59158e-05 0
0.248401 -8.28404e-15 0
0.232849 4.04448e-05 0
0.232815 1.59158e-05 0
0.186128 6.32773e-05 0
0.232849 4.04448e-05 0
0.186213 0.000128086 0
0.248401 -8.28404e-15 0
0.232849 4.04448e-05 0
0.248418 -7.18488e-15 0
0.23289 2.39016e-05 0
0.232849 4.04448e-05 0
0.186213 0.000128086 0
0.23289 2.39016e-05 0
0.186324 0.000109819 0
0.248418 -7.18488e-15 0
0.23289 2.39016e-05 0
0.2484 -5.4295e-15 0
0.232899 -3.63799e-05 0
0.23289 2.39016e-05 0
0.186324 0.000109819 0
0.232899 -3.63799e-05 0
0.186415 -8.07182e-06 0
0.2484 -5.4295e-15 0
0.232899 -3.63799e-05 0
0.248309 -2.80849e-15 0
0.232838 -0.000144199 0
0.232899 -3.63799e-05 0
0.186415 -8.07182e-06 0
0.232838 -0.000144199 0
0.186442 -0.000215077 0
0.248309 -2.80849e-15 0
0.232838 -0.000144199 0
0.248111 -2.64438e-17 0
0.232669 -0.000286019 0
0.232838 -0.000144199 0
0.186442 -0.000215077 0
0.232669 -0.000286019 0
0.186369 -0.000500866 0
0.248111 -2.64438e-17 0
0.232669 -0.000286019 0
0.24778 2.37884e-15 0
0.232366 -0.000456215 0
0.232669 -0.000286019 0
0.186369 -0.000500866 0
0.232366 -0.000456215 0
0.186163 -0.000837649 0
0.24778 2.37884e-15 0
0.232366 -0.000456215 0
0.24731 4.31968e-15 0
0.231913 -0.000623573 0
0.232366 -0.000456215 0
0.186163 -0.000837649 0
0.231913 -0.000623573 0
0.185793 -0.00120467 0
0.24731 4.31968e-15 0
0.231913 -0.000623573 0
0.246717 5.40396e-15 0
0.231322 -0.000762801 0
0.231913 -0.000623573 0
0.185793 -0.00120467 0
0.231322 -0.000762801 0
0.185232 -0.00152709 0
0.246717 5.40396e-15 0
0.231322 -0.000762801 0
0.246045 6.15479e-15 0
0.230648 -0.000806467 0
0.231322 -0.000762801 0
0.185232 -0.00152709 0
0.230648 -0.000806467 0
0.184514 -0.00166767 0
0 0 0
0 0 0
-0.000173461 -0.000215915 0
-0.000485286 -0.000984104 0
0 0 0
0 0 0
-0.000485286 -0.000984104 0
-0.000782738 -0.00247898 0
-0.000173461 -0.000215915 0
-0.000485286 -0.000984104 0
-0.000686608 -0.000427666 0
-0.00145799 -0.001398 0
-0.000485286 -0.000984104 0
-0.000782738 -0.00247898 0
-0.00145799 -0.001398 0
-0.00210297 -0.00260661 0
-0.000686608 -0.000427666 0
-0.00145799 -0.001398 0
-0.00133627 -0.000359565 0
-0.00243474 -0.00129503 0
-0.00145799 -0.001398 0
-0.00210297 -0.00260661 0
-0.00243474 -0.00129503 0
-0.00306656 -0.00237955 0
-0.00133627 -0.000359565 0
-0.00243474 -0.00129503 0
-0.00192105 -0.000289813 0
-0.00337771 -0.00114544 0
-0.00243474 -0.00129503 0
-0.00306656 -0.00237955 0
-0.00337771 -0.00114544 0
-0.00387101 -0.00212874 0
-0.00192105 -0.000289813 0
-0.00337771 -0.00114544 0
-0.00244538 -0.000110234 0
-0.00428384 -0.000932033 0
-0.00337771 -0.00114544 0
-0.00387101 -0.00212874 0
-0.00428384 -0.000932033 0
-0.00460811 -0.00189384 0
-0.00244538 -0.000110234 0
-0.00428384 -0.000932033 0
-0.00291371 7.02559e-05 0
-0.00515898 -0.000683461 0
-0.00428384 -0.000932033 0
-0.00460811 -0.00189384 0
-0.00515898 -0.000683461 0
-0.00535113 -0.00163578 0
-0.00291371 7.02559e-05 0
-0.00515898 -0.000683461 0
-0.00327508 0.00028156 0
-0.00598455 -0.000356934 0
-0.00515898 -0.000683461 0
-0.00535113 -0.00163578 0
-0.00598455 -0.000356934 0
-0.00616344 -0.00133928 0
-0.00327508 0.00028156 0
-0.00598455 -0.000356934 0
-0.00347874 0.00049122 0
-0.00673933 4.73192e-06 0
-0.00598455 -0.000356934 0
-0.00616344 -0.00133928 0
-0.00673933 4.73192e-06 0
-0.00707682 -0.000979731 0
-0.00347874 0.00049122 0
-0.00673933 4.73192e-06 0
-0.00350526 0.000532426 0
-0.0072949 0.000333861 0
-0.00673933 4.73192e-06 0
-0.00707682 -0.000979731 0
-0.0072949 0.000333861 0
-0.00810354 -0.000544193 0
-0.00350526 0.000532426 0
-0.0072949 0.000333861 0
-0.00333552 0.000569102 0
-0.00758607 0.000620185 0
-0.0072949 0.000333861 0
-0.00810354 -0.000544193 0
-0.00758607 0.000620185 0
-0.00912193 -4.11814e-05 0
-0.00333552 0.000569102 0
-0.00758607 0.000620185 0
-0.0030978 0.000161249 0
-0.00746819 0.00051816 0
-0.00758607 0.000620185 0
-0.00912193 -4.11814e-05 0
-0.00746819 0.00051816 0
-0.00988264 0.000422857 0
-0.0030978 0.000161249 0
-0.00746819 0.00051816 0
-0.00292127 -0.000256474 0
-0.00709105 2.33423e-05 0
-0.00746819 0.00051816 0
-0.00988264 0.000422857 0
-0.00709105 2.33423e-05 0
-0.00996892 0.000456071 0
-0.00292127 -0.000256474 0
-0.00709105 2.33423e-05 0
-0.00311484 -0.0018013 0
-0.00649238 -0.0016203 0
-0.00709105 2.33423e-05 0
-0.00996892 0.000456071 0
-0.00649238 -0.0016203 0
-0.00912677 -0.000370937 0
-0.00311484 -0.0018013 0
-0.00649238 -0.0016203 0
-0.00398943 -0.003379 0
-0.00601692 -0.00403782 0
-0.00649238 -0.0016203 0
-0.00912677 -0.000370937 0
-0.00601692 -0.00403782 0
-0.0072769 -0.0025722 0
-0.00398943 -0.003379 0
-0.00601692 -0.00403782 0
-0.00560387 -0.00786683 0
-0.00553059 -0.00853549 0
-0.00601692 -0.00403782 0
-0.0072769 -0.0025722 0
-0.00553059 -0.00853549 0
-0.00435025 -0.00601519 0
-0.00560387 -0.00786683 0
-0.00553059 -0.00853549 0
-0.0074627 -0.0132385 0
-0.00431335 -0.0133228 0
-0.00553059 -0.00853549 0
-0.00435025 -0.00601519 0
-0.00431335 -0.0133228 0
-0.000377557 -0.00978303 0
-0.00655235 -0.0085532 0
0.003264 -0.00755768 0
-0.00587401 -0.00422822 0
0.00388956 -0.00370115 0
0.003264 -0.00755768 0
0.0137676 -0.00632655 0
0.00388956 -0.00370115 0
0.0145914 -0.00323867 0
-0.00587401 -0.00422822 0
0.00388956 -0.00370115 0
-0.00552802 -1.76569e-05 0
0.00404014 3.67126e-05 0
0.00388956 -0.00370115 0
0.0145914 -0.00323867 0
0.00404014 3.67126e-05 0
0.0145885 -0.000250568 0
-0.00552802 -1.76569e-05 0
0.00404014 3.67126e-05 0
-0.0054812 0.00442587 0
0.00364785 0.00397087 0
0.00404014 3.67126e-05 0
0.0145885 -0.000250568 0
0.00364785 0.00397087 0
0.0136896 0.00275465 0
-0.0054812 0.00442587 0
0.00364785 0.00397087 0
-0.00568176 0.00919825 0
0.00260376 0.00820422 0
0.00364785 0.00397087 0
0.0136896 0.00275465 0
0.00260376 0.00820422 0
0.0117162 0.00590278 0
0 0 0
0 0 0
0.00041005 0.000242419 0