# vtk DataFile Version 3.0
#This file was generated by the deal.II library on 2026/3/26 at 14:58:11
ASCII
DATASET UNSTRUCTURED_GRID

POINTS 1296 double
0 0 0
0.214286 0 0
0 0.25 0
0.214286 0.25 0
0 0.25 0
0.214286 0.25 0
0 0.5 0
0.214286 0.5 0
0 0.5 0
0.214286 0.5 0
0 0.75 0
0.214286 0.75 0
0.214286 0 0
0.428571 0 0
0.214286 0.25 0
0.428571 0.25 0
0.214286 0.25 0
0.428571 0.25 0
0.214286 0.5 0
0.428571 0.5 0
0.214286 0.5 0
0.428571 0.5 0
0.214286 0.75 0
0.428571 0.75 0
0.428571 0 0
0.642857 0 0
0.428571 0.25 0
0.642857 0.25 0
0.428571 0.25 0
0.642857 0.25 0
0.428571 0.5 0
0.642857 0.5 0
0.428571 0.5 0
0.642857 0.5 0
0.428571 0.75 0
0.642857 0.75 0
0.642857 0 0
0.857143 0 0
0.642857 0.25 0
0.857143 0.25 0
0.642857 0.25 0
0.857143 0.25 0
0.642857 0.5 0
0.857143 0.5 0
0.642857 0.5 0
0.857143 0.5 0
0.642857 0.75 0
0.857143 0.75 0
0.857143 0 0
1.07143 0 0
0.857143 0.25 0
1.07143 0.25 0
0.857143 0.25 0
1.07143 0.25 0
0.857143 0.5 0
1.07143 0.5 0
0.857143 0.5 0
1.07143 0.5 0
0.857143 0.75 0
1.07143 0.75 0
1.07143 0 0
1.28571 0 0
1.07143 0.25 0
1.28571 0.25 0
1.07143 0.25 0
1.28571 0.25 0
1.07143 0.5 0
1.28571 0.5 0
1.07143 0.5 0
1.28571 0.5 0
1.07143 0.75 0
1.28571 0.75 0
1.28571 0 0
1.5 0 0
1.28571 0.25 0
1.5 0.25 0
1.28571 0.25 0
1.5 0.25 0
1.28571 0.5 0
1.5 0.5 0
1.28571 0.5 0
1.5 0.5 0
1.28571 0.75 0
1.5 0.75 0
1.28571 0.75 0
1.5 0.75 0
1.28571 1 0
1.5 1 0
1.5 0 0
1.71429 0 0
1.5 0.25 0
1.71429 0.25 0
1.5 0.25 0
1.71429 0.25 0
1.5 0.5 0
1.71429 0.5 0
1.5 0.5 0
1.71429 0.5 0
1.5 0.75 0
1.71429 0.75 0
1.71429 0 0
1.92857 0 0
1.71429 0.25 0
1.92857 0.25 0
1.71429 0.25 0
1.92857 0.25 0
1.71429 0.5 0
1.92857 0.5 0
1.71429 0.5 0
1.92857 0.5 0
1.71429 0.75 0
1.92857 0.75 0
1.92857 0 0
2.14286 0 0
1.92857 0.25 0
2.14286 0.25 0
1.92857 0.25 0
2.14286 0.25 0
1.92857 0.5 0
2.14286 0.5 0
1.92857 0.5 0
2.14286 0.5 0
1.92857 0.75 0
2.14286 0.75 0
2.14286 0 0
2.35714 0 0
2.14286 0.25 0
2.35714 0.25 0
2.14286 0.25 0
2.35714 0.25 0
2.14286 0.5 0
2.35714 0.5 0
2.14286 0.5 0
2.35714 0.5 0
2.14286 0.75 0
2.35714 0.75 0
2.35714 0 0
2.57143 0 0
2.35714 0.25 0
2.57143 0.25 0
2.35714 0.25 0
2.57143 0.25 0
2.35714 0.5 0
2.57143 0.5 0
2.35714 0.5 0
2.57143 0.5 0
2.35714 0.75 0
2.57143 0.75 0
2.57143 0 0
2.78571 0 0
2.57143 0.25 0
2.78571 0.25 0
2.57143 0.25 0
2.78571 0.25 0
2.57143 0.5 0
2.78571 0.5 0
2.57143 0.5 0
2.78571 0.5 0
2.57143 0.75 0
2.78571 0.75 0
2.78571 0 0
3 0 0
2.78571 0.25 0
3 0.25 0
2.78571 0.25 0
3 0.25 0
2.78571 0.5 0
3 0.5 0
2.78571 0.5 0
3 0.5 0
2.78571 0.75 0
3 0.75 0
1.28571 2 0
1.28571 1.75 0
1.5 2 0
1.5 1.75 0
0 1.75 0
0 1.5 0
0.214286 1.75 0
0.214286 1.5 0
0.214286 1.75 0
0.214286 1.5 0
0.428571 1.75 0
0.428571 1.5 0
0.428571 1.75 0
0.428571 1.5 0
0.642857 1.75 0
0.642857 1.5 0
0.642857 1.75 0
0.642857 1.5 0
0.857143 1.75 0
0.857143 1.5 0
0.857143 1.75 0
0.857143 1.5 0
1.07143 1.75 0
1.07143 1.5 0
1.07143 1.75 0
1.07143 1.5 0
1.28571 1.75 0
1.28571 1.5 0
1.28571 1.75 0
1.28571 1.5 0
1.5 1.75 0
1.5 1.5 0
1.5 1.75 0
1.5 1.5 0
1.71429 1.75 0
1.71429 1.5 0
1.71429 1.75 0
1.71429 1.5 0
1.92857 1.75 0
1.92857 1.5 0
1.92857 1.75 0
1.92857 1.5 0
2.14286 1.75 0
2.14286 1.5 0
2.14286 1.75 0
2.14286 1.5 0
2.35714 1.75 0
2.35714 1.5 0
2.35714 1.75 0
2.35714 1.5 0
2.57143 1.75 0
2.57143 1.5 0
2.57143 1.75 0
2.57143 1.5 0
2.78571 1.75 0
2.78571 1.5 0
2.78571 1.75 0
2.78571 1.5 0
3 1.75 0
3 1.5 0
0 1.5 0
0 1.25 0
0.214286 1.5 0
0.214286 1.25 0
0.214286 1.5 0
0.214286 1.25 0
0.428571 1.5 0
0.428571 1.25 0
0.428571 1.5 0
0.428571 1.25 0
0.642857 1.5 0
0.642857 1.25 0
0.642857 1.5 0
0.642857 1.25 0
0.857143 1.5 0
0.857143 1.25 0
0.857143 1.5 0
0.857143 1.25 0
1.07143 1.5 0
1.07143 1.25 0
1.07143 1.5 0
1.07143 1.25 0
1.28571 1.5 0
1.28571 1.25 0
1.28571 1.5 0
1.28571 1.25 0
1.5 1.5 0
1.5 1.25 0
1.5 1.5 0
1.5 1.25 0
1.71429 1.5 0
1.71429 1.25 0
1.71429 1.5 0
1.71429 1.25 0
1.92857 1.5 0
1.92857 1.25 0
1.92857 1.5 0
1.92857 1.25 0
2.14286 1.5 0
2.14286 1.25 0
2.14286 1.5 0
2.14286 1.25 0
2.35714 1.5 0
2.35714 1.25 0
2.35714 1.5 0
2.35714 1.25 0
2.57143 1.5 0
2.57143 1.25 0
2.57143 1.5 0
2.57143 1.25 0
2.78571 1.5 0
2.78571 1.25 0
2.78571 1.5 0
2.78571 1.25 0
3 1.5 0
3 1.25 0
1.28571 1.25 0
1.28571 1 0
1.5 1.25 0
1.5 1 0
0 3 0
0 2.75 0
0.214286 3 0
0.214286 2.75 0
0.214286 3 0
0.214286 2.75 0
0.428571 3 0
0.428571 2.75 0
0.428571 3 0
0.428571 2.75 0
0.642857 3 0
0.642857 2.75 0
0.642857 3 0
0.642857 2.75 0
0.857143 3 0
0.857143 2.75 0
0.857143 3 0
0.857143 2.75 0
1.07143 3 0
1.07143 2.75 0
1.07143 3 0
1.07143 2.75 0
1.28571 3 0
1.28571 2.75 0
1.28571 3 0
1.28571 2.75 0
1.5 3 0
1.5 2.75 0
1.5 3 0
1.5 2.75 0
1.71429 3 0
1.71429 2.75 0
1.71429 3 0
1.71429 2.75 0
1.92857 3 0
1.92857 2.75 0
1.92857 3 0
1.92857 2.75 0
2.14286 3 0
2.14286 2.75 0
2.14286 3 0
2.14286 2.75 0
2.35714 3 0
2.35714 2.75 0
2.35714 3 0
2.35714 2.75 0
2.57143 3 0
2.57143 2.75 0
2.57143 3 0
2.57143 2.75 0
2.78571 3 0
2.78571 2.75 0
2.78571 3 0
2.78571 2.75 0
3 3 0
3 2.75 0
0 2.75 0
0 2.5 0
0.214286 2.75 0
0.214286 2.5 0
0.214286 2.75 0
0.214286 2.5 0
0.428571 2.75 0
0.428571 2.5 0
0.428571 2.75 0
0.428571 2.5 0
0.642857 2.75 0
0.642857 2.5 0
0.642857 2.75 0
0.642857 2.5 0
0.857143 2.75 0
0.857143 2.5 0
0.857143 2.75 0
0.857143 2.5 0
1.07143 2.75 0
1.07143 2.5 0
1.07143 2.75 0
1.07143 2.5 0
1.28571 2.75 0
1.28571 2.5 0
1.28571 2.75 0
1.28571 2.5 0
1.5 2.75 0
1.5 2.5 0
1.5 2.75 0
1.5 2.5 0
1.71429 2.75 0
1.71429 2.5 0
1.71429 2.75 0
1.71429 2.5 0
1.92857 2.75 0
1.92857 2.5 0
1.92857 2.75 0
1.92857 2.5 0
2.14286 2.75 0
2.14286 2.5 0
2.14286 2.75 0
2.14286 2.5 0
2.35714 2.75 0
2.35714 2.5 0
2.35714 2.75 0
2.35714 2.5 0
2.57143 2.75 0
2.57143 2.5 0
2.57143 2.75 0
2.57143 2.5 0
2.78571 2.75 0
2.78571 2.5 0
2.78571 2.75 0
2.78571 2.5 0
3 2.75 0
3 2.5 0
0 2.5 0
0 2.25 0
0.214286 2.5 0
0.214286 2.25 0
0.214286 2.5 0
0.214286 2.25 0
0.428571 2.5 0
0.428571 2.25 0
0.428571 2.5 0
0.428571 2.25 0
0.642857 2.5 0
0.642857 2.25 0
0.642857 2.5 0
0.642857 2.25 0
0.857143 2.5 0
0.857143 2.25 0
0.857143 2.5 0
0.857143 2.25 0
1.07143 2.5 0
1.07143 2.25 0
1.07143 2.5 0
1.07143 2.25 0
1.28571 2.5 0
1.28571 2.25 0
1.28571 2.5 0
1.28571 2.25 0
1.5 2.5 0
1.5 2.25 0
1.5 2.5 0
1.5 2.25 0
1.71429 2.5 0
1.71429 2.25 0
1.71429 2.5 0
1.71429 2.25 0
1.92857 2.5 0
1.92857 2.25 0
1.92857 2.5 0
1.92857 2.25 0
2.14286 2.5 0
2.14286 2.25 0
2.14286 2.5 0
2.14286 2.25 0
2.35714 2.5 0
2.35714 2.25 0
2.35714 2.5 0
2.35714 2.25 0
2.57143 2.5 0
2.57143 2.25 0
2.57143 2.5 0
2.57143 2.25 0
2.78571 2.5 0
2.78571 2.25 0
2.78571 2.5 0
2.78571 2.25 0
3 2.5 0
3 2.25 0
1.28571 2.25 0
1.28571 2 0
1.5 2.25 0
1.5 2 0
0 0.75 0
0.107143 0.75 0
0 0.875 0
0.107143 0.875 0
0.107143 0.75 0
0.214286 0.75 0
0.107143 0.875 0
0.214286 0.875 0
0 0.875 0
0.107143 0.875 0
0 1 0
0.107143 1 0
0.107143 0.875 0
0.214286 0.875 0
0.107143 1 0
0.214286 1 0
0.214286 0.75 0
0.321429 0.75 0
0.214286 0.875 0
0.321429 0.875 0
0.321429 0.75 0
0.428571 0.75 0
0.321429 0.875 0
0.428571 0.875 0
0.214286 0.875 0
0.321429 0.875 0
0.214286 1 0
0.321429 1 0
0.321429 0.875 0
0.428571 0.875 0
0.321429 1 0
0.428571 1 0
0.428571 0.75 0
0.535714 0.75 0
0.428571 0.875 0
0.535714 0.875 0
0.535714 0.75 0
0.642857 0.75 0
0.535714 0.875 0
0.642857 0.875 0
0.428571 0.875 0
0.535714 0.875 0
0.428571 1 0
0.535714 1 0
0.535714 0.875 0
0.642857 0.875 0
0.535714 1 0
0.642857 1 0
0.642857 0.75 0
0.75 0.75 0
0.642857 0.875 0
0.75 0.875 0
0.75 0.75 0
0.857143 0.75 0
0.75 0.875 0
0.857143 0.875 0
0.642857 0.875 0
0.75 0.875 0
0.642857 1 0
0.75 1 0
0.75 0.875 0
0.857143 0.875 0
0.75 1 0
0.857143 1 0
0.857143 0.75 0
0.964286 0.75 0
0.857143 0.875 0
0.964286 0.875 0
0.964286 0.75 0
1.07143 0.75 0
0.964286 0.875 0
1.07143 0.875 0
0.857143 0.875 0
0.964286 0.875 0
0.857143 1 0
0.964286 1 0
0.964286 0.875 0
1.07143 0.875 0
0.964286 1 0
1.07143 1 0
1.07143 0.75 0
1.17857 0.75 0
1.07143 0.875 0
1.17857 0.875 0
1.17857 0.75 0
1.28571 0.75 0
1.17857 0.875 0
1.28571 0.875 0
1.07143 0.875 0
1.17857 0.875 0
1.07143 1 0
1.17857 1 0
1.17857 0.875 0
1.28571 0.875 0
1.17857 1 0
1.28571 1 0
1.5 0.75 0
1.60714 0.75 0
1.5 0.875 0
1.60714 0.875 0
1.60714 0.75 0
1.71429 0.75 0
1.60714 0.875 0
1.71429 0.875 0
1.5 0.875 0
1.60714 0.875 0
1.5 1 0
1.60714 1 0
1.60714 0.875 0
1.71429 0.875 0
1.60714 1 0
1.71429 1 0
1.71429 0.75 0
1.82143 0.75 0
1.71429 0.875 0
1.82143 0.875 0
1.82143 0.75 0
1.92857 0.75 0
1.82143 0.875 0
1.92857 0.875 0
1.71429 0.875 0
1.82143 0.875 0
1.71429 1 0
1.82143 1 0
1.82143 0.875 0
1.92857 0.875 0
1.82143 1 0
1.92857 1 0
1.92857 0.75 0
2.03571 0.75 0
1.92857 0.875 0
2.03571 0.875 0
2.03571 0.75 0
2.14286 0.75 0
2.03571 0.875 0
2.14286 0.875 0
1.92857 0.875 0
2.03571 0.875 0
1.92857 1 0
2.03571 1 0
2.03571 0.875 0
2.14286 0.875 0
2.03571 1 0
2.14286 1 0
2.14286 0.75 0
2.25 0.75 0
2.14286 0.875 0
2.25 0.875 0
2.25 0.75 0
2.35714 0.75 0
2.25 0.875 0
2.35714 0.875 0
2.14286 0.875 0
2.25 0.875 0
2.14286 1 0
2.25 1 0
2.25 0.875 0
2.35714 0.875 0
2.25 1 0
2.35714 1 0
2.35714 0.75 0
2.46429 0.75 0
2.35714 0.875 0
2.46429 0.875 0
2.46429 0.75 0
2.57143 0.75 0
2.46429 0.875 0
2.57143 0.875 0
2.35714 0.875 0
2.46429 0.875 0
2.35714 1 0
2.46429 1 0
2.46429 0.875 0
2.57143 0.875 0
2.46429 1 0
2.57143 1 0
2.57143 0.75 0
2.67857 0.75 0
2.57143 0.875 0
2.67857 0.875 0
2.67857 0.75 0
2.78571 0.75 0
2.67857 0.875 0
2.78571 0.875 0
2.57143 0.875 0
2.67857 0.875 0
2.57143 1 0
2.67857 1 0
2.67857 0.875 0
2.78571 0.875 0
2.67857 1 0
2.78571 1 0
2.78571 0.75 0
2.89286 0.75 0
2.78571 0.875 0
2.89286 0.875 0
2.89286 0.75 0
3 0.75 0
2.89286 0.875 0
3 0.875 0
2.78571 0.875 0
2.89286 0.875 0
2.78571 1 0
2.89286 1 0
2.89286 0.875 0
3 0.875 0
2.89286 1 0
3 1 0
0 2 0
0 1.875 0
0.107143 2 0
0.107143 1.875 0
0 1.875 0
0 1.75 0
0.107143 1.875 0
0.107143 1.75 0
0.107143 2 0
0.107143 1.875 0
0.214286 2 0
0.214286 1.875 0
0.107143 1.875 0
0.107143 1.75 0
0.214286 1.875 0
0.214286 1.75 0
0.214286 2 0
0.214286 1.875 0
0.321429 2 0
0.321429 1.875 0
0.214286 1.875 0
0.214286 1.75 0
0.321429 1.875 0
0.321429 1.75 0
0.321429 2 0
0.321429 1.875 0
0.428571 2 0
0.428571 1.875 0
0.321429 1.875 0
0.321429 1.75 0
[...]
POINT_DATA 1296
VECTORS velocity double
0 0 0
0 0 0
0 0 0
-2.50296e-06 -1.34686e-05 0
0 0 0
-2.50296e-06 -1.34686e-05 0
0 0 0
-0.00049395 0.000598289 0
0 0 0
-0.00049395 0.000598289 0
0 0 0
-0.000745596 0.00207381 0
0 0 0
0 0 0
-2.50296e-06 -1.34686e-05 0
-5.96031e-05 4.81257e-05 0
-2.50296e-06 -1.34686e-05 0
-5.96031e-05 4.81257e-05 0
-0.00049395 0.000598289 0
-0.00136606 0.000573727 0
-0.00049395 0.000598289 0
-0.00136606 0.000573727 0
-0.000745596 0.00207381 0
-0.00250714 0.00217511 0
0 0 0
0 0 0
-5.96031e-05 4.81257e-05 0
-0.000175356 6.01664e-05 0
-5.96031e-05 4.81257e-05 0
-0.000175356 6.01664e-05 0
-0.00136606 0.000573727 0
-0.0020266 0.00049434 0
-0.00136606 0.000573727 0
-0.0020266 0.00049434 0
-0.00250714 0.00217511 0
-0.00417406 0.00161324 0
0 0 0
0 0 0
-0.000175356 6.01664e-05 0
-0.000373149 0.000148226 0
-0.000175356 6.01664e-05 0
-0.000373149 0.000148226 0
-0.0020266 0.00049434 0
-0.00253306 0.000595274 0
-0.0020266 0.00049434 0
-0.00253306 0.000595274 0
-0.00417406 0.00161324 0
-0.00512809 0.00118645 0
0 0 0
0 0 0
-0.000373149 0.000148226 0
-0.00101658 0.000581442 0
-0.000373149 0.000148226 0
-0.00101658 0.000581442 0
-0.00253306 0.000595274 0
-0.00251058 0.000923335 0
-0.00253306 0.000595274 0
-0.00251058 0.000923335 0
-0.00512809 0.00118645 0
-0.00669504 0.00213796 0
0 0 0
0 0 0
-0.00101658 0.000581442 0
-0.00242234 0.00102967 0
-0.00101658 0.000581442 0
-0.00242234 0.00102967 0
-0.00251058 0.000923335 0
-0.00238735 0.00224604 0
-0.00251058 0.000923335 0
-0.00238735 0.00224604 0
-0.00669504 0.00213796 0
-0.00760934 0.00196225 0
0 0 0
0 0 0
-0.00242234 0.00102967 0
-0.00522259 0.00219984 0
-0.00242234 0.00102967 0
-0.00522259 0.00219984 0
-0.00238735 0.00224604 0
-0.00326199 0.00528985 0
-0.00238735 0.00224604 0
-0.00326199 0.00528985 0
-0.00760934 0.00196225 0
-0.00476107 0.00322064 0
-0.00760934 0.00196225 0
-0.00476107 0.00322064 0
0.027907 0.000632788 0
0.0292159 -0.000278074 0
0 0 0
0 0 0
-0.00522259 0.00219984 0
-0.0112603 0.00489891 0
-0.00522259 0.00219984 0
-0.0112603 0.00489891 0
-0.00326199 0.00528985 0
-0.00632075 0.0125377 0
-0.00326199 0.00528985 0
-0.00632075 0.0125377 0
-0.00476107 0.00322064 0
0.00201066 0.0104497 0
0 0 0
0 0 0
-0.0112603 0.00489891 0
-0.0220759 0.00770971 0
-0.0112603 0.00489891 0
-0.0220759 0.00770971 0
-0.00632075 0.0125377 0
-0.0109352 0.0179018 0
-0.00632075 0.0125377 0
-0.0109352 0.0179018 0
0.00201066 0.0104497 0
0.013981 0.0113638 0
0 0 0
0 0 0
-0.0220759 0.00770971 0
-0.0334566 0.00588678 0
-0.0220759 0.00770971 0
-0.0334566 0.00588678 0
-0.0109352 0.0179018 0
-0.0116514 0.00986804 0
-0.0109352 0.0179018 0
-0.0116514 0.00986804 0
0.013981 0.0113638 0
0.0201636 0.010308 0
0 0 0
0 0 0
-0.0334566 0.00588678 0
-0.0368421 -0.00169884 0
-0.0334566 0.00588678 0
-0.0368421 -0.00169884 0
-0.0116514 0.00986804 0
-0.00854822 -0.00590138 0
-0.0116514 0.00986804 0
-0.00854822 -0.00590138 0
0.0201636 0.010308 0
0.0183752 -0.00839053 0
0 0 0
0 0 0
-0.0368421 -0.00169884 0
-0.0289395 -0.00711333 0
-0.0368421 -0.00169884 0
-0.0289395 -0.00711333 0
-0.00854822 -0.00590138 0
-0.00852871 -0.0118371 0
-0.00854822 -0.00590138 0
-0.00852871 -0.0118371 0
0.0183752 -0.00839053 0
0.0105654 0.000328581 0
0 0 0
0 0 0
-0.0289395 -0.00711333 0
-0.011639 -0.0134635 0
-0.0289395 -0.00711333 0
-0.011639 -0.0134635 0
-0.00852871 -0.0118371 0
-0.00567579 -0.032693 0
-0.00852871 -0.0118371 0
-0.00567579 -0.032693 0
0.0105654 0.000328581 0
0.000454872 -0.0373401 0
0 0 0
0 0 0
-0.011639 -0.0134635 0
0 0 0
-0.011639 -0.0134635 0
0 0 0
-0.00567579 -0.032693 0
0 0 0
-0.00567579 -0.032693 0
0 0 0
0.000454872 -0.0373401 0
0 0 0
0.027907 -0.000632788 0
0.187069 0.000272548 0
0.0292159 0.000278074 0
0.186684 0.000323521 0
0.1875 0 0
0.25 0 0
0.187477 0.000134138 0
0.249981 1.52482e-16 0
0.187477 0.000134138 0
0.249981 1.52482e-16 0
0.187471 0.000155639 0
0.249758 1.74876e-15 0
0.187471 0.000155639 0
0.249758 1.74876e-15 0
0.187431 0.000230443 0
0.24948 1.37506e-15 0
0.187431 0.000230443 0
0.24948 1.37506e-15 0
0.187358 0.000184281 0
0.249187 3.1803e-15 0
0.187358 0.000184281 0
0.249187 3.1803e-15 0
0.187314 0.000235407 0
0.248847 3.65311e-15 0
0.187314 0.000235407 0
0.248847 3.65311e-15 0
0.187069 0.000272548 0
0.248622 5.64335e-15 0
0.187069 0.000272548 0
0.248622 5.64335e-15 0
0.186684 0.000323521 0
0.248533 4.50533e-15 0
0.186684 0.000323521 0
0.248533 4.50533e-15 0
0.186461 -0.000121336 0
0.248602 9.61881e-15 0
0.186461 -0.000121336 0
0.248602 9.61881e-15 0
0.186731 -0.000254113 0
0.248647 1.70858e-14 0
0.186731 -0.000254113 0
0.248647 1.70858e-14 0
0.186967 -4.22782e-06 0
0.248652 2.29113e-14 0
0.186967 -4.22782e-06 0
0.248652 2.29113e-14 0
0.186913 0.000467831 0
0.248288 2.94813e-14 0
0.186913 0.000467831 0
0.248288 2.94813e-14 0
0.186238 0.00117972 0
0.247607 3.21084e-14 0
0.186238 0.00117972 0
0.247607 3.21084e-14 0
0.185447 0.000478575 0
0.246904 3.24696e-14 0
0.185447 0.000478575 0
0.246904 3.24696e-14 0
0.185167 -0.00118867 0
0.247209 3.25974e-14 0
0.25 0 0
0.1875 0 0
0.249981 1.52482e-16 0
0.187477 -0.000134138 0
0.249981 1.52482e-16 0
0.187477 -0.000134138 0
0.249758 1.74876e-15 0
0.187471 -0.000155639 0
0.249758 1.74876e-15 0
0.187471 -0.000155639 0
0.24948 1.37506e-15 0
0.187431 -0.000230443 0
0.24948 1.37506e-15 0
0.187431 -0.000230443 0
0.249187 3.1803e-15 0
0.187358 -0.000184281 0
0.249187 3.1803e-15 0
0.187358 -0.000184281 0
0.248847 3.65311e-15 0
0.187314 -0.000235407 0
0.248847 3.65311e-15 0
0.187314 -0.000235407 0
0.248622 5.64335e-15 0
0.187069 -0.000272548 0
0.248622 5.64335e-15 0
0.187069 -0.000272548 0
0.248533 4.50533e-15 0
0.186684 -0.000323521 0
0.248533 4.50533e-15 0
0.186684 -0.000323521 0
0.248602 9.61881e-15 0
0.186461 0.000121336 0
0.248602 9.61881e-15 0
0.186461 0.000121336 0
0.248647 1.70858e-14 0
0.186731 0.000254113 0
0.248647 1.70858e-14 0
0.186731 0.000254113 0
0.248652 2.29113e-14 0
0.186967 4.22782e-06 0
0.248652 2.29113e-14 0
0.186967 4.22782e-06 0
0.248288 2.94813e-14 0
0.186913 -0.000467831 0
0.248288 2.94813e-14 0
0.186913 -0.000467831 0
0.247607 3.21084e-14 0
0.186238 -0.00117972 0
0.247607 3.21084e-14 0
0.186238 -0.00117972 0
0.246904 3.24696e-14 0
0.185447 -0.000478575 0
0.246904 3.24696e-14 0
0.185447 -0.000478575 0
0.247209 3.25974e-14 0
0.185167 0.00118867 0
0.187069 -0.000272548 0
0.027907 0.000632788 0
0.186684 -0.000323521 0
0.0292159 -0.000278074 0
0 0 0
0 0 0
0 0 0
-2.50296e-06 1.34686e-05 0
0 0 0
-2.50296e-06 1.34686e-05 0
0 0 0
-5.96031e-05 -4.81257e-05 0
0 0 0
-5.96031e-05 -4.81257e-05 0
0 0 0
-0.000175356 -6.01664e-05 0
0 0 0
-0.000175356 -6.01664e-05 0
0 0 0
-0.000373149 -0.000148226 0
0 0 0
-0.000373149 -0.000148226 0
0 0 0
-0.00101658 -0.000581442 0
0 0 0
-0.00101658 -0.000581442 0
0 0 0
-0.00242234 -0.00102967 0
0 0 0
-0.00242234 -0.00102967 0
0 0 0
-0.00522259 -0.00219984 0
0 0 0
-0.00522259 -0.00219984 0
0 0 0
-0.0112603 -0.00489891 0
0 0 0
-0.0112603 -0.00489891 0
0 0 0
-0.0220759 -0.00770971 0
0 0 0
-0.0220759 -0.00770971 0
0 0 0
-0.0334566 -0.00588678 0
0 0 0
-0.0334566 -0.00588678 0
0 0 0
-0.0368421 0.00169884 0
0 0 0
-0.0368421 0.00169884 0
0 0 0
-0.0289395 0.00711333 0
0 0 0
-0.0289395 0.00711333 0
0 0 0
-0.011639 0.0134635 0
0 0 0
-0.011639 0.0134635 0
0 0 0
0 0 0
0 0 0
0 0 0
-2.50296e-06 1.34686e-05 0
-0.00049395 -0.000598289 0
-2.50296e-06 1.34686e-05 0
-0.00049395 -0.000598289 0
-5.96031e-05 -4.81257e-05 0
-0.00136606 -0.000573727 0
-5.96031e-05 -4.81257e-05 0
-0.00136606 -0.000573727 0
-0.000175356 -6.01664e-05 0
-0.0020266 -0.00049434 0
-0.000175356 -6.01664e-05 0
-0.0020266 -0.00049434 0
-0.000373149 -0.000148226 0
-0.00253306 -0.000595274 0
-0.000373149 -0.000148226 0
-0.00253306 -0.000595274 0
-0.00101658 -0.000581442 0
-0.00251058 -0.000923335 0
-0.00101658 -0.000581442 0
-0.00251058 -0.000923335 0
-0.00242234 -0.00102967 0
-0.00238735 -0.00224604 0
-0.00242234 -0.00102967 0
-0.00238735 -0.00224604 0
-0.00522259 -0.00219984 0
-0.00326199 -0.00528985 0
-0.00522259 -0.00219984 0
-0.00326199 -0.00528985 0
-0.0112603 -0.00489891 0
-0.00632075 -0.0125377 0
-0.0112603 -0.00489891 0
-0.00632075 -0.0125377 0
-0.0220759 -0.00770971 0
-0.0109352 -0.0179018 0
-0.0220759 -0.00770971 0
-0.0109352 -0.0179018 0
-0.0334566 -0.00588678 0
-0.0116514 -0.00986804 0
-0.0334566 -0.00588678 0
-0.0116514 -0.00986804 0
-0.0368421 0.00169884 0
-0.00854822 0.00590138 0
-0.0368421 0.00169884 0
-0.00854822 0.00590138 0
-0.0289395 0.00711333 0
-0.00852871 0.0118371 0
-0.0289395 0.00711333 0
-0.00852871 0.0118371 0
-0.011639 0.0134635 0
-0.00567579 0.032693 0
-0.011639 0.0134635 0
-0.00567579 0.032693 0
0 0 0
0 0 0
0 0 0
0 0 0
-0.00049395 -0.000598289 0
-0.000745596 -0.00207381 0
-0.00049395 -0.000598289 0
-0.000745596 -0.00207381 0
-0.00136606 -0.000573727 0
-0.00250714 -0.00217511 0
-0.00136606 -0.000573727 0
-0.00250714 -0.00217511 0
-0.0020266 -0.00049434 0
-0.00417406 -0.00161324 0
-0.0020266 -0.00049434 0
-0.00417406 -0.00161324 0
-0.00253306 -0.000595274 0
-0.00512809 -0.00118645 0
-0.00253306 -0.000595274 0
-0.00512809 -0.00118645 0
-0.00251058 -0.000923335 0
-0.00669504 -0.00213796 0
-0.00251058 -0.000923335 0
-0.00669504 -0.00213796 0
-0.00238735 -0.00224604 0
-0.00760934 -0.00196225 0
-0.00238735 -0.00224604 0
-0.00760934 -0.00196225 0
-0.00326199 -0.00528985 0
-0.00476107 -0.00322064 0
-0.00326199 -0.00528985 0
-0.00476107 -0.00322064 0
-0.00632075 -0.0125377 0
0.00201066 -0.0104497 0
-0.00632075 -0.0125377 0
0.00201066 -0.0104497 0
-0.0109352 -0.0179018 0
0.013981 -0.0113638 0
-0.0109352 -0.0179018 0
0.013981 -0.0113638 0
-0.0116514 -0.00986804 0
0.0201636 -0.010308 0
-0.0116514 -0.00986804 0
0.0201636 -0.010308 0
-0.00854822 0.00590138 0
0.0183752 0.00839053 0
-0.00854822 0.00590138 0
0.0183752 0.00839053 0
-0.00852871 0.0118371 0
0.0105654 -0.000328581 0
-0.00852871 0.0118371 0
0.0105654 -0.000328581 0
-0.00567579 0.032693 0
0.000454872 0.0373401 0
-0.00567579 0.032693 0
0.000454872 0.0373401 0
0 0 0
0 0 0
-0.00760934 -0.00196225 0
0.027907 -0.000632788 0
-0.00476107 -0.00322064 0
0.0292159 0.000278074 0
0 0 0
-0.000175337 0.00103782 0
0 0 0
-0.00158334 0.00330369 0
-0.000175337 0.00103782 0
-0.000745596 0.00207381 0
-0.00158334 0.00330369 0
-0.00373551 0.00322978 0
0 0 0
-0.00158334 0.00330369 0
0 0 0
0.00307832 0.00208798 0
-0.00158334 0.00330369 0
-0.00373551 0.00322978 0
0.00307832 0.00208798 0
0.00812504 0.00150976 0
-0.000745596 0.00207381 0
-0.00156913 0.0021294 0
-0.00373551 0.00322978 0
-0.00430586 0.00285655 0
-0.00156913 0.0021294 0
-0.00250714 0.00217511 0
-0.00430586 0.00285655 0
-0.00430081 0.00280075 0
-0.00373551 0.00322978 0
-0.00430586 0.00285655 0
0.00812504 0.00150976 0
0.0119605 0.0011905 0
-0.00430586 0.00285655 0
-0.00430081 0.00280075 0
0.0119605 0.0011905 0
0.0152107 0.00103946 0
-0.00250714 0.00217511 0
-0.00342145 0.00189499 0
-0.00430081 0.00280075 0
-0.00396719 0.00221983 0
-0.00342145 0.00189499 0
-0.00417406 0.00161324 0
-0.00396719 0.00221983 0
-0.00371345 0.00214861 0
-0.00430081 0.00280075 0
-0.00396719 0.00221983 0
0.0152107 0.00103946 0
0.0178996 0.000785035 0
-0.00396719 0.00221983 0
-0.00371345 0.00214861 0
0.0178996 0.000785035 0
0.0202298 0.000847056 0
-0.00417406 0.00161324 0
-0.00474802 0.00139414 0
-0.00371345 0.00214861 0
-0.00341729 0.00146902 0
-0.00474802 0.00139414 0
-0.00512809 0.00118645 0
-0.00341729 0.00146902 0
-0.00339924 0.00182551 0
-0.00371345 0.00214861 0
-0.00341729 0.00146902 0
0.0202298 0.000847056 0
0.0221216 0.000469594 0
-0.00341729 0.00146902 0
-0.00339924 0.00182551 0
0.0221216 0.000469594 0
0.0240068 0.000807663 0
-0.00512809 0.00118645 0
-0.0056613 0.00165535 0
-0.00339924 0.00182551 0
-0.00282819 0.00126067 0
-0.0056613 0.00165535 0
-0.00669504 0.00213796 0
-0.00282819 0.00126067 0
-0.00180569 0.00285111 0
-0.00339924 0.00182551 0
-0.00282819 0.00126067 0
0.0240068 0.000807663 0
0.0254454 0.000109595 0
-0.00282819 0.00126067 0
-0.00180569 0.00285111 0
0.0254454 0.000109595 0
0.0270062 0.00112011 0
-0.00669504 0.00213796 0
-0.0075692 0.00205218 0
-0.00180569 0.00285111 0
-0.000192424 0.000770987 0
-0.0075692 0.00205218 0
-0.00760934 0.00196225 0
-0.000192424 0.000770987 0
0.00164533 0.00144199 0
-0.00180569 0.00285111 0
-0.000192424 0.000770987 0
0.0270062 0.00112011 0
0.0279619 -0.000384444 0
-0.000192424 0.000770987 0
0.00164533 0.00144199 0
0.0279619 -0.000384444 0
0.027907 0.000632788 0
-0.00476107 0.00322064 0
-0.00179242 0.00663767 0
0.00369155 0.000874601 0
0.00713352 0.00121397 0
-0.00179242 0.00663767 0
0.00201066 0.0104497 0
0.00713352 0.00121397 0
0.0101023 0.00760111 0
0.00369155 0.000874601 0
0.00713352 0.00121397 0
0.0292159 -0.000278074 0
0.0278138 -6.95222e-05 0
0.00713352 0.00121397 0
0.0101023 0.00760111 0
0.0278138 -6.95222e-05 0
0.0300819 0.00255129 0
0.00201066 0.0104497 0
0.00707554 0.0111908 0
0.0101023 0.00760111 0
0.01437 0.00282621 0
0.00707554 0.0111908 0
0.013981 0.0113638 0
0.01437 0.00282621 0
0.0173341 0.00794704 0
0.0101023 0.00760111 0
0.01437 0.00282621 0
0.0300819 0.00255129 0
0.032011 0.000663284 0
0.01437 0.00282621 0
0.0173341 0.00794704 0
0.032011 0.000663284 0
0.0346894 0.00326058 0
0.013981 0.0113638 0
0.0194843 0.0104685 0
0.0173341 0.00794704 0
0.0212197 0.00259699 0
0.0194843 0.0104685 0
0.0201636 0.010308 0
0.0212197 0.00259699 0
0.0269035 0.0105383 0
0.0173341 0.00794704 0
0.0212197 0.00259699 0
0.0346894 0.00326058 0
0.0364426 0.000706522 0
0.0212197 0.00259699 0
0.0269035 0.0105383 0
0.0364426 0.000706522 0
0.0386944 0.00273265 0
0.0201636 0.010308 0
0.0187521 0.00174302 0
0.0269035 0.0105383 0
0.0311675 -0.00198339 0
0.0187521 0.00174302 0
0.0183752 -0.00839053 0
0.0311675 -0.00198339 0
0.0267317 0.000948376 0
0.0269035 0.0105383 0
0.0311675 -0.00198339 0
0.0386944 0.00273265 0
0.0398434 -0.000380941 0
0.0311675 -0.00198339 0
0.0267317 0.000948376 0
0.0398434 -0.000380941 0
0.0419496 0.001581 0
0.0183752 -0.00839053 0
0.0166191 -0.00504821 0
0.0267317 0.000948376 0
0.0222019 -0.00731801 0
0.0166191 -0.00504821 0
0.0105654 0.000328581 0
0.0222019 -0.00731801 0
0.0236369 0.0077579 0
0.0267317 0.000948376 0
0.0222019 -0.00731801 0
0.0419496 0.001581 0
0.0417004 -0.00227582 0
0.0222019 -0.00731801 0
0.0236369 0.0077579 0
0.0417004 -0.00227582 0
0.0422335 -0.000393735 0
0.0105654 0.000328581 0
0.00374664 -0.0174501 0
0.0236369 0.0077579 0
0.024474 -0.0180009 0
0.00374664 -0.0174501 0
0.000454872 -0.0373401 0
0.024474 -0.0180009 0
0.00336032 -0.00811744 0
0.0236369 0.0077579 0
0.024474 -0.0180009 0
0.0422335 -0.000393735 0
0.0385618 -0.00621128 0
0.024474 -0.0180009 0
0.00336032 -0.00811744 0
0.0385618 -0.00621128 0
0.0405105 0.00142063 0
0.000454872 -0.0373401 0
-9.63158e-05 -0.0209195 0
0.00336032 -0.00811744 0
-0.010459 -0.0338036 0
-9.63158e-05 -0.0209195 0
0 0 0
-0.010459 -0.0338036 0
0 0 0
0.00336032 -0.00811744 0
-0.010459 -0.0338036 0
0.0405105 0.00142063 0
0.0295507 -0.013899 0
-0.010459 -0.0338036 0
0 0 0
0.0295507 -0.013899 0
0 0 0
0 0 0
0.109375 0 0
0.00307832 -0.00208798 0
0.109211 0.000480584 0
0.109375 0 0
0.1875 0 0
0.109211 0.000480584 0
0.187518 5.12936e-05 0
0.00307832 -0.00208798 0
0.109211 0.000480584 0
0.00812504 -0.00150976 0
0.108779 0.000485041 0
0.109211 0.000480584 0
0.187518 5.12936e-05 0
0.108779 0.000485041 0
0.187477 0.000134138 0
0.00812504 -0.00150976 0
0.108779 0.000485041 0
0.0119605 -0.0011905 0
0.108582 0.000377127 0
0.108779 0.000485041 0
0.187477 0.000134138 0
0.108582 0.000377127 0
0.187425 0.000148677 0
0.0119605 -0.0011905 0
0.108582 0.000377127 0
0.0152107 -0.00103946 0
0.108413 0.000403302 0
0.108582 0.000377127 0
0.187425 0.000148677 0
0.108413 0.000403302 0
0.187471 0.000155639 0
0.0152107 -0.00103946 0
0.108413 0.000403302 0
0.0178996 -0.000785035 0
0.108339 0.000329188 0
0.108413 0.000403302 0
0.187471 0.000155639 0
0.108339 0.000329188 0
0.187523 0.000190997 0
0.0178996 -0.000785035 0
0.108339 0.000329188 0
0.0202298 -0.000847056 0
0.10845 0.00047214 0
0.108339 0.000329188 0
0.187523 0.000190997 0
0.10845 0.00047214 0
0.187431 0.000230443 0
0.0202298 -0.000847056 0
0.10845 0.00047214 0
0.0221216 -0.000469594 0
0.108647 0.000304311 0
0.10845 0.00047214 0
0.187431 0.000230443 0
0.108647 0.000304311 0
0.187313 0.000208746 0
0.0221216 -0.000469594 0
0.108647 0.000304311 0
0.0240068 -0.000807663 0
0.108718 0.000431794 0
0.108647 0.000304311 0
0.187313 0.000208746 0
0.108718 0.000431794 0
0.187358 0.000184281 0
0.0240068 -0.000807663 0
0.108718 0.000431794 0
0.0254454 -0.000109595 0
0.108837 0.000250663 0
0.108718 0.000431794 0
0.187358 0.000184281 0
0.108837 0.000250663 0
0.187429 0.000211534 0
0.0254454 -0.000109595 0
0.108837 0.000250663 0
0.0270062 -0.00112011 0
0.10913 0.000544315 0
0.108837 0.000250663 0
0.187429 0.000211534 0
0.10913 0.000544315 0
0.187314 0.000235407 0
0.0270062 -0.00112011 0
0.10913 0.000544315 0
0.0279619 0.000384444 0
0.10958 0.000265063 0
0.10913 0.000544315 0
0.187314 0.000235407 0
0.10958 0.000265063 0
0.18712 0.000251456 0
0.0279619 0.000384444 0
0.10958 0.000265063 0
0.027907 -0.000632788 0
0.110222 7.18651e-05 0
0.10958 0.000265063 0
0.18712 0.000251456 0
0.110222 7.18651e-05 0
0.187069 0.000272548 0
0.0292159 0.000278074 0
0.110645 0.000578395 0
0.0278138 6.95222e-05 0
0.111377 -0.000881923 0
0.110645 0.000578395 0
0.186684 0.000323521 0
0.111377 -0.000881923 0
0.186382 8.55423e-05 0
0.0278138 6.95222e-05 0
0.111377 -0.000881923 0
0.0300819 -0.00255129 0
0.111148 0.0010022 0
0.111377 -0.000881923 0
0.186382 8.55423e-05 0
0.111148 0.0010022 0
0.186461 -0.000121336 0
0.0300819 -0.00255129 0
0.111148 0.0010022 0
0.032011 -0.000663284 0
0.1112 -0.00172438 0
0.111148 0.0010022 0
0.186461 -0.000121336 0
0.1112 -0.00172438 0
0.186658 -0.000180177 0
0.032011 -0.000663284 0
0.1112 -0.00172438 0
0.0346894 -0.00326058 0
0.111212 0.00131406 0
0.1112 -0.00172438 0
0.186658 -0.000180177 0
0.111212 0.00131406 0
0.186731 -0.000254113 0
0.0346894 -0.00326058 0
0.111212 0.00131406 0
0.0364426 -0.000706522 0
0.111612 -0.00237122 0
0.111212 0.00131406 0
0.186731 -0.000254113 0
0.111612 -0.00237122 0
0.18674 -0.000155773 0
0.0364426 -0.000706522 0
0.111612 -0.00237122 0
0.0386944 -0.00273265 0
0.111574 0.00218724 0
0.111612 -0.00237122 0
0.18674 -0.000155773 0
0.111574 0.00218724 0
0.186967 -4.22782e-06 0
0.0386944 -0.00273265 0
0.111574 0.00218724 0
0.0398434 0.000380941 0
0.111837 -0.00247314 0
0.111574 0.00218724 0
0.186967 -4.22782e-06 0
0.111837 -0.00247314 0
0.18711 0.000241875 0
0.0398434 0.000380941 0
0.111837 -0.00247314 0
0.0419496 -0.001581 0
0.111554 0.00418045 0
0.111837 -0.00247314 0
0.18711 0.000241875 0
0.111554 0.00418045 0
0.186913 0.000467831 0
0.0419496 -0.001581 0
0.111554 0.00418045 0
0.0417004 0.00227582 0
0.111663 -0.00282628 0
0.111554 0.00418045 0
0.186913 0.000467831 0
0.111663 -0.00282628 0
0.186457 0.000745065 0
0.0417004 0.00227582 0
0.111663 -0.00282628 0
0.0422335 0.000393735 0
0.110889 0.00643525 0
0.111663 -0.00282628 0
0.186457 0.000745065 0
0.110889 0.00643525 0
0.186238 0.00117972 0
0.0422335 0.000393735 0
0.110889 0.00643525 0
0.0385618 0.00621128 0
0.110585 -0.0037888 0
0.110889 0.00643525 0
0.186238 0.00117972 0
0.110585 -0.0037888 0
0.185942 0.000868882 0
0.0385618 0.00621128 0
0.110585 -0.0037888 0
0.0405105 -0.00142063 0
0.108268 0.00931562 0
0.110585 -0.0037888 0
0.185942 0.000868882 0
0.108268 0.00931562 0
0.185447 0.000478575 0
0.0405105 -0.00142063 0
0.108268 0.00931562 0
0.0295507 0.013899 0
0.10819 -0.00826592 0
0.108268 0.00931562 0
0.185447 0.000478575 0
0.10819 -0.00826592 0
0.184801 4.06508e-05 0
0.0295507 0.013899 0
0.10819 -0.00826592 0
0 0 0
0.116499 -0.00238292 0
0.10819 -0.00826592 0
0.184801 4.06508e-05 0
0.116499 -0.00238292 0
0.185167 -0.00118867 0
0.1875 0 0
0.109375 0 0
0.187518 -5.12936e-05 0
0.109211 -0.000480584 0
0.109375 0 0
0 0 0
0.109211 -0.000480584 0
0.00307832 0.00208798 0
0.187518 -5.12936e-05 0
0.109211 -0.000480584 0
0.187477 -0.000134138 0
0.108779 -0.000485041 0
0.109211 -0.000480584 0
0.00307832 0.00208798 0
0.108779 -0.000485041 0
0.00812504 0.00150976 0
0.187477 -0.000134138 0
0.108779 -0.000485041 0
0.187425 -0.000148677 0
0.108582 -0.000377127 0
0.108779 -0.000485041 0