# vtk DataFile Version 3.0
#This file was generated by the deal.II library on 2026/4/15 at 16:57:57
ASCII
DATASET UNSTRUCTURED_GRID

POINTS 60168 double
0 0 0
0.10101 0 0
0 0.125 0
0.10101 0.125 0
0.10101 0 0
0.20202 0 0
0.10101 0.125 0
0.20202 0.125 0
0.10101 0.125 0
0.20202 0.125 0
0.10101 0.25 0
0.20202 0.25 0
0.20202 0 0
0.30303 0 0
0.20202 0.125 0
0.30303 0.125 0
0.20202 0.125 0
0.30303 0.125 0
0.20202 0.25 0
0.30303 0.25 0
0.30303 0 0
0.40404 0 0
0.30303 0.125 0
0.40404 0.125 0
0.30303 0.125 0
0.40404 0.125 0
0.30303 0.25 0
0.40404 0.25 0
0.40404 0 0
0.505051 0 0
0.40404 0.125 0
0.505051 0.125 0
0.40404 0.125 0
0.505051 0.125 0
0.40404 0.25 0
0.505051 0.25 0
0.505051 0 0
0.606061 0 0
0.505051 0.125 0
0.606061 0.125 0
0.505051 0.125 0
0.606061 0.125 0
0.505051 0.25 0
0.606061 0.25 0
0.606061 0 0
0.707071 0 0
0.606061 0.125 0
0.707071 0.125 0
0.606061 0.125 0
0.707071 0.125 0
0.606061 0.25 0
0.707071 0.25 0
0.707071 0 0
0.808081 0 0
0.707071 0.125 0
0.808081 0.125 0
0.707071 0.125 0
0.808081 0.125 0
0.707071 0.25 0
0.808081 0.25 0
0.808081 0 0
0.909091 0 0
0.808081 0.125 0
0.909091 0.125 0
0.808081 0.125 0
0.909091 0.125 0
0.808081 0.25 0
0.909091 0.25 0
0.909091 0 0
1.0101 0 0
0.909091 0.125 0
1.0101 0.125 0
0.909091 0.125 0
1.0101 0.125 0
0.909091 0.25 0
1.0101 0.25 0
1.0101 0 0
1.11111 0 0
1.0101 0.125 0
1.11111 0.125 0
1.0101 0.125 0
1.11111 0.125 0
1.0101 0.25 0
1.11111 0.25 0
1.11111 0 0
1.21212 0 0
1.11111 0.125 0
1.21212 0.125 0
1.11111 0.125 0
1.21212 0.125 0
1.11111 0.25 0
1.21212 0.25 0
1.21212 0 0
1.31313 0 0
1.21212 0.125 0
1.31313 0.125 0
1.21212 0.125 0
1.31313 0.125 0
1.21212 0.25 0
1.31313 0.25 0
1.31313 0 0
1.41414 0 0
1.31313 0.125 0
1.41414 0.125 0
1.31313 0.125 0
1.41414 0.125 0
1.31313 0.25 0
1.41414 0.25 0
1.41414 0 0
1.51515 0 0
1.41414 0.125 0
1.51515 0.125 0
1.41414 0.125 0
1.51515 0.125 0
1.41414 0.25 0
1.51515 0.25 0
1.51515 0 0
1.61616 0 0
1.51515 0.125 0
1.61616 0.125 0
1.51515 0.125 0
1.61616 0.125 0
1.51515 0.25 0
1.61616 0.25 0
1.61616 0 0
1.71717 0 0
1.61616 0.125 0
1.71717 0.125 0
1.61616 0.125 0
1.71717 0.125 0
1.61616 0.25 0
1.71717 0.25 0
1.71717 0 0
1.81818 0 0
1.71717 0.125 0
1.81818 0.125 0
1.71717 0.125 0
1.81818 0.125 0
1.71717 0.25 0
1.81818 0.25 0
1.81818 0 0
1.91919 0 0
1.81818 0.125 0
1.91919 0.125 0
1.81818 0.125 0
1.91919 0.125 0
1.81818 0.25 0
1.91919 0.25 0
1.91919 0 0
2.0202 0 0
1.91919 0.125 0
2.0202 0.125 0
1.91919 0.125 0
2.0202 0.125 0
1.91919 0.25 0
2.0202 0.25 0
2.0202 0 0
2.12121 0 0
2.0202 0.125 0
2.12121 0.125 0
2.0202 0.125 0
2.12121 0.125 0
2.0202 0.25 0
2.12121 0.25 0
2.12121 0 0
2.22222 0 0
2.12121 0.125 0
2.22222 0.125 0
2.12121 0.125 0
2.22222 0.125 0
2.12121 0.25 0
2.22222 0.25 0
2.22222 0 0
2.32323 0 0
2.22222 0.125 0
2.32323 0.125 0
2.22222 0.125 0
2.32323 0.125 0
2.22222 0.25 0
2.32323 0.25 0
2.32323 0 0
2.42424 0 0
2.32323 0.125 0
2.42424 0.125 0
2.32323 0.125 0
2.42424 0.125 0
2.32323 0.25 0
2.42424 0.25 0
2.42424 0 0
2.52525 0 0
2.42424 0.125 0
2.52525 0.125 0
2.42424 0.125 0
2.52525 0.125 0
2.42424 0.25 0
2.52525 0.25 0
2.52525 0 0
2.62626 0 0
2.52525 0.125 0
2.62626 0.125 0
2.52525 0.125 0
2.62626 0.125 0
2.52525 0.25 0
2.62626 0.25 0
2.62626 0 0
2.72727 0 0
2.62626 0.125 0
2.72727 0.125 0
2.62626 0.125 0
2.72727 0.125 0
2.62626 0.25 0
2.72727 0.25 0
2.72727 0 0
2.82828 0 0
2.72727 0.125 0
2.82828 0.125 0
2.72727 0.125 0
2.82828 0.125 0
2.72727 0.25 0
2.82828 0.25 0
2.82828 0 0
2.92929 0 0
2.82828 0.125 0
2.92929 0.125 0
2.82828 0.125 0
2.92929 0.125 0
2.82828 0.25 0
2.92929 0.25 0
2.92929 0 0
3.0303 0 0
2.92929 0.125 0
3.0303 0.125 0
2.92929 0.125 0
3.0303 0.125 0
2.92929 0.25 0
3.0303 0.25 0
3.0303 0 0
3.13131 0 0
3.0303 0.125 0
3.13131 0.125 0
3.0303 0.125 0
3.13131 0.125 0
3.0303 0.25 0
3.13131 0.25 0
3.13131 0 0
3.23232 0 0
3.13131 0.125 0
3.23232 0.125 0
3.13131 0.125 0
3.23232 0.125 0
3.13131 0.25 0
3.23232 0.25 0
3.23232 0 0
3.33333 0 0
3.23232 0.125 0
3.33333 0.125 0
3.23232 0.125 0
3.33333 0.125 0
3.23232 0.25 0
3.33333 0.25 0
3.33333 0 0
3.43434 0 0
3.33333 0.125 0
3.43434 0.125 0
3.33333 0.125 0
3.43434 0.125 0
3.33333 0.25 0
3.43434 0.25 0
3.43434 0 0
3.53535 0 0
3.43434 0.125 0
3.53535 0.125 0
3.43434 0.125 0
3.53535 0.125 0
3.43434 0.25 0
3.53535 0.25 0
3.53535 0 0
3.63636 0 0
3.53535 0.125 0
3.63636 0.125 0
3.53535 0.125 0
3.63636 0.125 0
3.53535 0.25 0
3.63636 0.25 0
3.63636 0 0
3.73737 0 0
3.63636 0.125 0
3.73737 0.125 0
3.63636 0.125 0
3.73737 0.125 0
3.63636 0.25 0
3.73737 0.25 0
3.73737 0 0
3.83838 0 0
3.73737 0.125 0
3.83838 0.125 0
3.73737 0.125 0
3.83838 0.125 0
3.73737 0.25 0
3.83838 0.25 0
3.83838 0 0
3.93939 0 0
3.83838 0.125 0
3.93939 0.125 0
3.83838 0.125 0
3.93939 0.125 0
3.83838 0.25 0
3.93939 0.25 0
3.93939 0 0
4.0404 0 0
3.93939 0.125 0
4.0404 0.125 0
3.93939 0.125 0
4.0404 0.125 0
3.93939 0.25 0
4.0404 0.25 0
4.0404 0 0
4.14141 0 0
4.0404 0.125 0
4.14141 0.125 0
4.0404 0.125 0
4.14141 0.125 0
4.0404 0.25 0
4.14141 0.25 0
4.14141 0 0
4.24242 0 0
4.14141 0.125 0
4.24242 0.125 0
4.14141 0.125 0
4.24242 0.125 0
4.14141 0.25 0
4.24242 0.25 0
4.24242 0 0
4.34343 0 0
4.24242 0.125 0
4.34343 0.125 0
4.24242 0.125 0
4.34343 0.125 0
4.24242 0.25 0
4.34343 0.25 0
4.34343 0 0
4.44444 0 0
4.34343 0.125 0
4.44444 0.125 0
4.34343 0.125 0
4.44444 0.125 0
4.34343 0.25 0
4.44444 0.25 0
4.44444 0 0
4.54545 0 0
4.44444 0.125 0
4.54545 0.125 0
4.44444 0.125 0
4.54545 0.125 0
4.44444 0.25 0
4.54545 0.25 0
4.54545 0 0
4.64646 0 0
4.54545 0.125 0
4.64646 0.125 0
4.54545 0.125 0
4.64646 0.125 0
4.54545 0.25 0
4.64646 0.25 0
4.64646 0 0
4.74747 0 0
4.64646 0.125 0
4.74747 0.125 0
4.64646 0.125 0
4.74747 0.125 0
4.64646 0.25 0
4.74747 0.25 0
4.74747 0 0
4.84848 0 0
4.74747 0.125 0
4.84848 0.125 0
4.74747 0.125 0
4.84848 0.125 0
4.74747 0.25 0
4.84848 0.25 0
4.84848 0 0
4.94949 0 0
4.84848 0.125 0
4.94949 0.125 0
4.84848 0.125 0
4.94949 0.125 0
4.84848 0.25 0
4.94949 0.25 0
4.94949 0 0
5.05051 0 0
4.94949 0.125 0
5.05051 0.125 0
4.94949 0.125 0
5.05051 0.125 0
4.94949 0.25 0
5.05051 0.25 0
5.05051 0 0
5.15152 0 0
5.05051 0.125 0
5.15152 0.125 0
5.05051 0.125 0
5.15152 0.125 0
5.05051 0.25 0
5.15152 0.25 0
5.15152 0 0
5.25253 0 0
5.15152 0.125 0
5.25253 0.125 0
5.15152 0.125 0
5.25253 0.125 0
5.15152 0.25 0
5.25253 0.25 0
5.25253 0 0
5.35354 0 0
5.25253 0.125 0
5.35354 0.125 0
5.25253 0.125 0
5.35354 0.125 0
5.25253 0.25 0
5.35354 0.25 0
5.35354 0 0
5.45455 0 0
5.35354 0.125 0
5.45455 0.125 0
5.35354 0.125 0
5.45455 0.125 0
5.35354 0.25 0
5.45455 0.25 0
5.45455 0 0
5.55556 0 0
5.45455 0.125 0
5.55556 0.125 0
5.45455 0.125 0
5.55556 0.125 0
5.45455 0.25 0
5.55556 0.25 0
5.55556 0 0
5.65657 0 0
5.55556 0.125 0
5.65657 0.125 0
5.55556 0.125 0
5.65657 0.125 0
5.55556 0.25 0
5.65657 0.25 0
5.65657 0 0
5.75758 0 0
5.65657 0.125 0
5.75758 0.125 0
5.65657 0.125 0
5.75758 0.125 0
5.65657 0.25 0
5.75758 0.25 0
5.75758 0 0
5.85859 0 0
5.75758 0.125 0
5.85859 0.125 0
5.75758 0.125 0
5.85859 0.125 0
5.75758 0.25 0
5.85859 0.25 0
5.85859 0 0
5.9596 0 0
5.85859 0.125 0
5.9596 0.125 0
5.85859 0.125 0
5.9596 0.125 0
5.85859 0.25 0
5.9596 0.25 0
5.9596 0 0
6.06061 0 0
5.9596 0.125 0
6.06061 0.125 0
5.9596 0.125 0
6.06061 0.125 0
5.9596 0.25 0
6.06061 0.25 0
6.06061 0 0
6.16162 0 0
6.06061 0.125 0
6.16162 0.125 0
6.06061 0.125 0
6.16162 0.125 0
6.06061 0.25 0
6.16162 0.25 0
6.16162 0 0
6.26263 0 0
6.16162 0.125 0
6.26263 0.125 0
6.16162 0.125 0
6.26263 0.125 0
6.16162 0.25 0
6.26263 0.25 0
6.26263 0 0
6.36364 0 0
6.26263 0.125 0
6.36364 0.125 0
6.26263 0.125 0
6.36364 0.125 0
6.26263 0.25 0
6.36364 0.25 0
6.36364 0 0
6.46465 0 0
6.36364 0.125 0
6.46465 0.125 0
6.36364 0.125 0
6.46465 0.125 0
6.36364 0.25 0
6.46465 0.25 0
6.46465 0 0
6.56566 0 0
6.46465 0.125 0
6.56566 0.125 0
6.46465 0.125 0
6.56566 0.125 0
6.46465 0.25 0
6.56566 0.25 0
6.56566 0 0
6.66667 0 0
6.56566 0.125 0
6.66667 0.125 0
6.56566 0.125 0
6.66667 0.125 0
6.56566 0.25 0
6.66667 0.25 0
6.66667 0 0
6.76768 0 0
6.66667 0.125 0
6.76768 0.125 0
6.66667 0.125 0
6.76768 0.125 0
6.66667 0.25 0
6.76768 0.25 0
6.76768 0 0
6.86869 0 0
6.76768 0.125 0
6.86869 0.125 0
6.76768 0.125 0
6.86869 0.125 0
6.76768 0.25 0
6.86869 0.25 0
6.86869 0 0
6.9697 0 0
6.86869 0.125 0
6.9697 0.125 0
6.86869 0.125 0
6.9697 0.125 0
6.86869 0.25 0
6.9697 0.25 0
6.9697 0 0
7.07071 0 0
6.9697 0.125 0
7.07071 0.125 0
6.9697 0.125 0
7.07071 0.125 0
6.9697 0.25 0
7.07071 0.25 0
7.07071 0 0
7.17172 0 0
7.07071 0.125 0
7.17172 0.125 0
7.07071 0.125 0
7.17172 0.125 0
7.07071 0.25 0
7.17172 0.25 0
7.17172 0 0
7.27273 0 0
7.17172 0.125 0
7.27273 0.125 0
7.17172 0.125 0
7.27273 0.125 0
7.17172 0.25 0
7.27273 0.25 0
7.27273 0 0
7.37374 0 0
7.27273 0.125 0
7.37374 0.125 0
7.27273 0.125 0
7.37374 0.125 0
7.27273 0.25 0
7.37374 0.25 0
7.37374 0 0
7.47475 0 0
7.37374 0.125 0
7.47475 0.125 0
7.37374 0.125 0
7.47475 0.125 0
7.37374 0.25 0
7.47475 0.25 0
7.47475 0 0
7.57576 0 0
7.47475 0.125 0
7.57576 0.125 0
7.47475 0.125 0
7.57576 0.125 0
7.47475 0.25 0
7.57576 0.25 0
7.57576 0 0
7.67677 0 0
7.57576 0.125 0
7.67677 0.125 0
7.57576 0.125 0
7.67677 0.125 0
7.57576 0.25 0
7.67677 0.25 0
7.67677 0 0
7.77778 0 0
7.67677 0.125 0
7.77778 0.125 0
7.67677 0.125 0
7.77778 0.125 0
7.67677 0.25 0
7.77778 0.25 0
7.77778 0 0
7.87879 0 0
7.77778 0.125 0
7.87879 0.125 0
7.77778 0.125 0
7.87879 0.125 0
7.77778 0.25 0
7.87879 0.25 0
7.87879 0 0
7.9798 0 0
7.87879 0.125 0
7.9798 0.125 0
7.87879 0.125 0
7.9798 0.125 0
7.87879 0.25 0
7.9798 0.25 0
7.9798 0 0
8.08081 0 0
7.9798 0.125 0
8.08081 0.125 0
7.9798 0.125 0
8.08081 0.125 0
7.9798 0.25 0
8.08081 0.25 0
8.08081 0 0
8.18182 0 0
8.08081 0.125 0
8.18182 0.125 0
8.08081 0.125 0
8.18182 0.125 0
8.08081 0.25 0
8.18182 0.25 0
8.18182 0 0
8.28283 0 0
8.18182 0.125 0
8.28283 0.125 0
8.18182 0.125 0
8.28283 0.125 0
8.18182 0.25 0
8.28283 0.25 0
8.28283 0 0
8.38384 0 0
8.28283 0.125 0
8.38384 0.125 0
8.28283 0.125 0
8.38384 0.125 0
8.28283 0.25 0
8.38384 0.25 0
8.38384 0 0
8.48485 0 0
8.38384 0.125 0
8.48485 0.125 0
8.38384 0.125 0
8.48485 0.125 0
8.38384 0.25 0
8.48485 0.25 0
8.48485 0 0
8.58586 0 0
[...]
POINT_DATA 60168
VECTORS velocity double
0 0 0
0 0 0
0 0 0
0 0 0
0 0 0
0 0 0
0 0 0
0 0 0
0 0 0
0 0 0
0 0 0
0 0 0
0 0 0
0 0 0
0 0 0
0 0 0
0 0 0
0 0 0
0 0 0
0 0 0
0 0 0
0 0 0
0 0 0
0 0 0
0 0 0
0 0 0
0 0 0
0 0 0
0 0 0
0 0 0
0 0 0
0 0 0
0 0 0
0 0 0
0 0 0
0 0 0
0 0 0
0 0 0
0 0 0
0 0 0
0 0 0
0 0 0
0 0 0
0 0 0
0 0 0
0 0 0
0 0 0
0 0 0
0 0 0
0 0 0
0 0 0
0 0 0
0 0 0
0 0 0
0 0 0
0 0 0
0 0 0
0 0 0
0 0 0
0 0 0
0 0 0
0 0 0
0 0 0
0 0 0
0 0 0
0 0 0
0 0 0
0 0 0
0 0 0
0 0 0
0 0 0
0 0 0
0 0 0
0 0 0
0 0 0
0 0 0
0 0 0
0 0 0
0 0 0
0 0 0
0 0 0
0 0 0
0 0 0
0 0 0
0 0 0
0 0 0
0 0 0
0 0 0
0 0 0
0 0 0
0 0 0
0 0 0
0 0 0
0 0 0
0 0 0
0 0 0
0 0 0
0 0 0
0 0 0
0 0 0
0 0 0
0 0 0
0 0 0
0 0 0
0 0 0
0 0 0
0 0 0
0 0 0
0 0 0
0 0 0
0 0 0
0 0 0
0 0 0
0 0 0
0 0 0
0 0 0
0 0 0
0 0 0
0 0 0
0 0 0
0 0 0
0 0 0
0 0 0
0 0 0
0 0 0
0 0 0
0 0 0
0 0 0
0 0 0
0 0 0
0 0 0
0 0 0
0 0 0
0 0 0
0 0 0
0 0 0
0 0 0
0 0 0
0 0 0
0 0 0
0 0 0
0 0 0
0 0 0
0 0 0
0 0 0
0 0 0
0 0 0
0 0 0
0 0 0
0 0 0
0 0 0
0 0 0
0 0 0
0 0 0
0 0 0
0 0 0
0 0 0
0 0 0
0 0 0
0 0 0
0 0 0
0 0 0
0 0 0
0 0 0
0 0 0
0 0 0
0 0 0
0 0 0
0 0 0
0 0 0
0 0 0
0 0 0
0 0 0
0 0 0
0 0 0
0 0 0
0 0 0
0 0 0
0 0 0
0 0 0
0 0 0
0 0 0
0 0 0
0 0 0
0 0 0
0 0 0
0 0 0
0 0 0
0 0 0
0 0 0
0 0 0
0 0 0
0 0 0
0 0 0
0 0 0
0 0 0
0 0 0
0 0 0
0 0 0
0 0 0
0 0 0
0 0 0
0 0 0
0 0 0
0 0 0
0 0 0
0 0 0
0 0 0
0 0 0
0 0 0
0 0 0
0 0 0
0 0 0
0 0 0
0 0 0
0 0 0
0 0 0
0 0 0
0 0 0
0 0 0
0 0 0
0 0 0
0 0 0
0 0 0
0 0 0
0 0 0
0 0 0
0 0 0
0 0 0
0 0 0
0 0 0
0 0 0
0 0 0
0 0 0
0 0 0
0 0 0
0 0 0
0 0 0
0 0 0
0 0 0
0 0 0
0 0 0
0 0 0
0 0 0
0 0 0
0 0 0
0 0 0
0 0 0
0 0 0
0 0 0
0 0 0
0 0 0
0 0 0
0 0 0
0 0 0
0 0 0
0 0 0
0 0 0
0 0 0
0 0 0
0 0 0
0 0 0
0 0 0
0 0 0
0 0 0
0 0 0
0 0 0
0 0 0
0 0 0
0 0 0
0 0 0
0 0 0
0 0 0
0 0 0
0 0 0
0 0 0
0 0 0
0 0 0
0 0 0
0 0 0
0 0 0
0 0 0
0 0 0
0 0 0
0 0 0
0 0 0
0 0 0
0 0 0
0 0 0
0 0 0
0 0 0
0 0 0
0 0 0
0 0 0
0 0 0
0 0 0
0 0 0
0 0 0
0 0 0
0 0 0
0 0 0
0 0 0
0 0 0
0 0 0
0 0 0
0 0 0
0 0 0
0 0 0
0 0 0
0 0 0
0 0 0
0 0 0
0 0 0
0 0 0
0 0 0
0 0 0
0 0 0
0 0 0
0 0 0
0 0 0
0 0 0
0 0 0
0 0 0
0 0 0
0 0 0
0 0 0
0 0 0
0 0 0
0 0 0
0 0 0
0 0 0
0 0 0
0 0 0
0 0 0
0 0 0
0 0 0
0 0 0
0 0 0
0 0 0
0 0 0
0 0 0
0 0 0
0 0 0
0 0 0
0 0 0
0 0 0
0 0 0
0 0 0
0 0 0
0 0 0
0 0 0
0 0 0
0 0 0
0 0 0
0 0 0
0 0 0
0 0 0
0 0 0
0 0 0
0 0 0
0 0 0
0 0 0
0 0 0
0 0 0
0 0 0
0 0 0
0 0 0
0 0 0
0 0 0
0 0 0
0 0 0
0 0 0
0 0 0
0 0 0
0 0 0
0 0 0
0 0 0
0 0 0
0 0 0
0 0 0
0 0 0
0 0 0
0 0 0
0 0 0
0 0 0
0 0 0
0 0 0
0 0 0
0 0 0
0 0 0
0 0 0
0 0 0
0 0 0
0 0 0
0 0 0
0 0 0
0 0 0
0 0 0
0 0 0
0 0 0
0 0 0
0 0 0
0 0 0
0 0 0
0 0 0
0 0 0
0 0 0
0 0 0
0 0 0
0 0 0
0 0 0
0 0 0
0 0 0
0 0 0
0 0 0
0 0 0
0 0 0
0 0 0
0 0 0
0 0 0
0 0 0
0 0 0
0 0 0
0 0 0
0 0 0
0 0 0
0 0 0
0 0 0
0 0 0
0 0 0
0 0 0
0 0 0
0 0 0
0 0 0
0 0 0
0 0 0
0 0 0
0 0 0
0 0 0
0 0 0
0 0 0
0 0 0
0 0 0
0 0 0
0 0 0
0 0 0
0 0 0
0 0 0
0 0 0
0 0 0
0 0 0
0 0 0
0 0 0
0 0 0
0 0 0
0 0 0
0 0 0
0 0 0
0 0 0
0 0 0
0 0 0
0 0 0
0 0 0
0 0 0
0 0 0
0 0 0
0 0 0
0 0 0
0 0 0
0 0 0
0 0 0
0 0 0
0 0 0
0 0 0
0 0 0
0 0 0
0 0 0
0 0 0
0 0 0
0 0 0
0 0 0
0 0 0
0 0 0
0 0 0
0 0 0
0 0 0
0 0 0
0 0 0
0 0 0
0 0 0
0 0 0
0 0 0
0 0 0
0 0 0
0 0 0
0 0 0
0 0 0
0 0 0
0 0 0
0 0 0
0 0 0
0 0 0
0 0 0
0 0 0
0 0 0
0 0 0
0 0 0
0 0 0
0 0 0
0 0 0
0 0 0
0 0 0
0 0 0
0 0 0
0 0 0
0 0 0
0 0 0
0 0 0
0 0 0
0 0 0
0 0 0
0 0 0
0 0 0
0 0 0
0 0 0
0 0 0
0 0 0
0 0 0
0 0 0
0 0 0
0 0 0
0 0 0
0 0 0
0 0 0
0 0 0
0 0 0
0 0 0
0 0 0
0 0 0
0 0 0
0 0 0
0 0 0
0 0 0
0 0 0
0 0 0
0 0 0
0 0 0
0 0 0
0 0 0
0 0 0
0 0 0
0 0 0
0 0 0
0 0 0
0 0 0
0 0 0
0 0 0
0 0 0
0 0 0
0 0 0
0 0 0
0 0 0
0 0 0
0 0 0
0 0 0
0 0 0
0 0 0
0 0 0
0 0 0
0 0 0
0 0 0
0 0 0
0 0 0
0 0 0
0 0 0
0 0 0
0 0 0
0 0 0
0 0 0
0 0 0
0 0 0
0 0 0
0 0 0
0 0 0
0 0 0
0 0 0
0 0 0
0 0 0
0 0 0
0 0 0
0 0 0
0 0 0
0 0 0
0 0 0
0 0 0
0 0 0
0 0 0
0 0 0
0 0 0
0 0 0
0 0 0
0 0 0
0 0 0
0 0 0
0 0 0
0 0 0
0 0 0
0 0 0
0 0 0
0 0 0
0 0 0
0 0 0
0 0 0
0 0 0
0 0 0
0 0 0
0 0 0
0 0 0
0 0 0
0 0 0
0 0 0
0 0 0
0 0 0
0 0 0
0 0 0
0 0 0
0 0 0
0 0 0
0 0 0
0 0 0
0 0 0
0 0 0
0 0 0
0 0 0
0 0 0
0 0 0
0 0 0
0 0 0
0 0 0
0 0 0
0 0 0
0 0 0
0 0 0
0 0 0
0 0 0
0 0 0
0 0 0
0 0 0
0 0 0
0 0 0
0 0 0
0 0 0
0 0 0
0 0 0
0 0 0
0 0 0
0 0 0
0 0 0
0 0 0
0 0 0
0 0 0
0 0 0
0 0 0
0 0 0
0 0 0
0 0 0
0 0 0
0 0 0
0 0 0
0 0 0
0 0 0
0 0 0
0 0 0
0 0 0
0 0 0
0 0 0
0 0 0
0 0 0
0 0 0
0 0 0
0 0 0
0 0 0
0 0 0
0 0 0
0 0 0
0 0 0
0 0 0
0 0 0
0 0 0
0 0 0
0 0 0
0 0 0
0 0 0
0 0 0
0 0 0
0 0 0
0 0 0
0 0 0
0 0 0
0 0 0
0 0 0
0 0 0
0 0 0
0 0 0
0 0 0
0 0 0
0 0 0
0 0 0
0 0 0
0 0 0
0 0 0
0 0 0
0 0 0
0 0 0
0 0 0
0 0 0
0 0 0
0 0 0
0 0 0
0 0 0
0 0 0
0 0 0
0 0 0
0 0 0
0 0 0
0 0 0
0 0 0
0 0 0
0 0 0
0 0 0
0 0 0
0 0 0
0 0 0
0 0 0
0 0 0
0 0 0
0 0 0
0 0 0
0 0 0
0 0 0
0 0 0
0 0 0
0 0 0
0 0 0
0 0 0
0 0 0
0 0 0
0 0 0
0 0 0
0 0 0
0 0 0
0 0 0
0 0 0
0 0 0
0 0 0
0 0 0
0 0 0
0 0 0
0 0 0
0 0 0
0 0 0
0 0 0
0 0 0
0 0 0
0 0 0
0 0 0
0 0 0
0 0 0
0 0 0
0 0 0
0 0 0
0 0 0
0 0 0
0 0 0
0 0 0
0 0 0
0 0 0
0 0 0
0 0 0
0 0 0
0 0 0
0 0 0
0 0 0
0 0 0
0 0 0
0 0 0
0 0 0
0 0 0
3.45679 0 0
3.45679 1.45168e-16 0
4.44444 0 0
4.44444 -2.97612e-17 0
4.44444 0 0
4.44444 -2.97612e-17 0
4.93827 0 0
4.93827 2.17338e-16 0
4.93827 0 0
4.93827 2.17338e-16 0
4.93827 0 0
4.93827 3.61623e-16 0
3.45679 1.45168e-16 0
3.45679 2.08331e-17 0
4.44444 -2.97612e-17 0
4.44444 -2.68652e-16 0
4.44444 -2.97612e-17 0
4.44444 -2.68652e-16 0
4.93827 2.17338e-16 0
4.93827 1.60873e-16 0
4.93827 2.17338e-16 0
4.93827 1.60873e-16 0
4.93827 3.61623e-16 0
4.93827 7.60154e-17 0
3.45679 2.08331e-17 0
3.45679 1.4403e-16 0
4.44444 -2.68652e-16 0
4.44444 -1.32503e-16 0
4.44444 -2.68652e-16 0
4.44444 -1.32503e-16 0
4.93827 1.60873e-16 0
4.93827 -8.82432e-16 0
4.93827 1.60873e-16 0
4.93827 -8.82432e-16 0
4.93827 7.60154e-17 0
4.93827 2.7891e-17 0
4.93827 7.60154e-17 0
4.93827 2.7891e-17 0
4.44444 5.10627e-16 0
4.44444 -8.20444e-17 0
3.45679 1.4403e-16 0
3.45679 -4.01911e-16 0
4.44444 -1.32503e-16 0
4.44444 -1.21766e-16 0
4.44444 -1.32503e-16 0
4.44444 -1.21766e-16 0
4.93827 -8.82432e-16 0
4.93827 -4.28468e-16 0
4.93827 -8.82432e-16 0
4.93827 -4.28468e-16 0
4.93827 2.7891e-17 0
4.93827 1.62902e-16 0
4.93827 2.7891e-17 0
4.93827 1.62902e-16 0
4.44444 -8.20444e-17 0
4.44444 5.84126e-17 0
3.45679 -4.01911e-16 0
3.45679 -1.05844e-16 0
4.44444 -1.21766e-16 0
4.44444 -2.99416e-16 0
4.44444 -1.21766e-16 0
4.44444 -2.99416e-16 0
4.93827 -4.28468e-16 0
4.93827 5.58658e-16 0
4.93827 -4.28468e-16 0
4.93827 5.58658e-16 0
4.93827 1.62902e-16 0
4.93827 -2.29159e-16 0
4.93827 1.62902e-16 0
4.93827 -2.29159e-16 0
4.44444 5.84126e-17 0
4.44444 -5.77798e-16 0
3.45679 -1.05844e-16 0
3.45679 1.69958e-16 0
4.44444 -2.99416e-16 0
4.44444 -4.00572e-17 0
4.44444 -2.99416e-16 0
4.44444 -4.00572e-17 0
4.93827 5.58658e-16 0
4.93827 -4.04361e-16 0
4.93827 5.58658e-16 0
4.93827 -4.04361e-16 0
4.93827 -2.29159e-16 0
4.93827 -3.69945e-16 0
4.93827 -2.29159e-16 0
4.93827 -3.69945e-16 0
4.44444 -5.77798e-16 0
4.44444 5.09245e-16 0
3.45679 1.69958e-16 0
3.45679 -4.16753e-16 0
4.44444 -4.00572e-17 0
4.44444 3.19942e-16 0
4.44444 -4.00572e-17 0
4.44444 3.19942e-16 0
4.93827 -4.04361e-16 0
4.93827 1.53718e-16 0
4.93827 -4.04361e-16 0
4.93827 1.53718e-16 0
4.93827 -3.69945e-16 0
4.93827 -6.6506e-16 0
4.93827 -3.69945e-16 0
4.93827 -6.6506e-16 0
4.44444 5.09245e-16 0
4.44444 -4.39517e-16 0
3.45679 -4.16753e-16 0
3.45679 3.36799e-16 0
4.44444 3.19942e-16 0
4.44444 -1.26207e-16 0
4.44444 3.19942e-16 0
4.44444 -1.26207e-16 0
4.93827 1.53718e-16 0
4.93827 -8.70832e-16 0
4.93827 1.53718e-16 0
4.93827 -8.70832e-16 0
4.93827 -6.6506e-16 0
4.93827 -5.37453e-16 0
4.93827 -6.6506e-16 0
4.93827 -5.37453e-16 0
4.44444 -4.39517e-16 0
4.44444 3.9125e-16 0
3.45679 3.36799e-16 0
3.45679 1.85557e-17 0
4.44444 -1.26207e-16 0
4.44444 -7.34121e-16 0
4.44444 -1.26207e-16 0
4.44444 -7.34121e-16 0
4.93827 -8.70832e-16 0
4.93827 2.35538e-16 0
4.93827 -8.70832e-16 0
4.93827 2.35538e-16 0
4.93827 -5.37453e-16 0
4.93827 8.74445e-17 0
4.93827 -5.37453e-16 0
4.93827 8.74445e-17 0
4.44444 3.9125e-16 0
4.44444 5.80432e-17 0
3.45679 1.85557e-17 0
3.45679 4.06189e-16 0
4.44444 -7.34121e-16 0
4.44444 9.75711e-18 0
4.44444 -7.34121e-16 0
4.44444 9.75711e-18 0
4.93827 2.35538e-16 0
4.93827 -3.27769e-17 0
4.93827 2.35538e-16 0
4.93827 -3.27769e-17 0
4.93827 8.74445e-17 0
4.93827 8.39354e-17 0
4.93827 8.74445e-17 0
4.93827 8.39354e-17 0
4.44444 5.80432e-17 0
4.44444 -4.39583e-16 0
3.45679 4.06189e-16 0
3.45679 2.07148e-16 0
4.44444 9.75711e-18 0
4.44444 4.72773e-16 0
4.44444 9.75711e-18 0
4.44444 4.72773e-16 0
4.93827 -3.27769e-17 0
4.93827 -3.2318e-16 0
4.93827 -3.27769e-17 0
4.93827 -3.2318e-16 0
4.93827 8.39354e-17 0
4.93827 -1.44772e-16 0
4.93827 8.39354e-17 0
4.93827 -1.44772e-16 0
4.44444 -4.39583e-16 0
4.44444 1.19985e-16 0
3.45679 2.07148e-16 0
3.45679 1.0789e-16 0
4.44444 4.72773e-16 0
4.44444 1.58115e-16 0
4.44444 4.72773e-16 0
4.44444 1.58115e-16 0
4.93827 -3.2318e-16 0
4.93827 5.04474e-16 0
4.93827 -3.2318e-16 0
4.93827 5.04474e-16 0
4.93827 -1.44772e-16 0
4.93827 5.48773e-16 0
4.93827 -1.44772e-16 0
4.93827 5.48773e-16 0
4.44444 1.19985e-16 0
4.44444 -1.76633e-16 0
4.44444 1.19985e-16 0
4.44444 -1.76633e-16 0
3.45679 -1.59283e-16 0
3.45679 1.63535e-18 0
3.45679 1.0789e-16 0
3.45679 2.95217e-16 0
4.44444 1.58115e-16 0
4.44444 6.3804e-16 0
4.44444 1.58115e-16 0
4.44444 6.3804e-16 0
4.93827 5.04474e-16 0
4.93827 -2.71673e-16 0
4.93827 5.04474e-16 0
4.93827 -2.71673e-16 0
4.93827 5.48773e-16 0
4.93827 -1.60966e-16 0
4.93827 5.48773e-16 0
4.93827 -1.60966e-16 0
4.44444 -1.76633e-16 0
4.44444 8.40872e-18 0
4.44444 -1.76633e-16 0
4.44444 8.40872e-18 0
3.45679 1.63535e-18 0
3.45679 1.10952e-16 0
3.45679 2.95217e-16 0
3.45679 5.15013e-16 0
4.44444 6.3804e-16 0
4.44444 -1.33795e-16 0
4.44444 6.3804e-16 0
4.44444 -1.33795e-16 0
4.93827 -2.71673e-16 0
4.93827 7.43239e-16 0
4.93827 -2.71673e-16 0
4.93827 7.43239e-16 0
4.93827 -1.60966e-16 0
4.93827 3.13473e-17 0
4.93827 -1.60966e-16 0
4.93827 3.13473e-17 0
4.44444 8.40872e-18 0
4.44444 -3.18953e-16 0
4.44444 8.40872e-18 0
4.44444 -3.18953e-16 0
3.45679 1.10952e-16 0
3.45679 1.85207e-17 0
3.45679 5.15013e-16 0
3.45679 -7.97587e-17 0
4.44444 -1.33795e-16 0
4.44444 4.4579e-16 0
4.44444 -1.33795e-16 0
4.44444 4.4579e-16 0
4.93827 7.43239e-16 0
4.93827 -1.64274e-16 0
4.93827 7.43239e-16 0
4.93827 -1.64274e-16 0
4.93827 3.13473e-17 0
4.93827 -2.71501e-16 0
4.93827 3.13473e-17 0
4.93827 -2.71501e-16 0
4.44444 -3.18953e-16 0
4.44444 5.60984e-16 0
4.44444 -3.18953e-16 0
4.44444 5.60984e-16 0
3.45679 1.85207e-17 0
3.45679 -2.25688e-17 0
3.45679 -7.97587e-17 0
3.45679 3.56263e-16 0
4.44444 4.4579e-16 0
4.44444 1.759e-16 0
4.44444 4.4579e-16 0
4.44444 1.759e-16 0
4.93827 -1.64274e-16 0
4.93827 -2.81446e-16 0
4.93827 -1.64274e-16 0
4.93827 -2.81446e-16 0
4.93827 -2.71501e-16 0
4.93827 2.57925e-16 0
4.93827 -2.71501e-16 0
4.93827 2.57925e-16 0
4.44444 5.60984e-16 0
4.44444 1.98993e-16 0
4.44444 5.60984e-16 0
4.44444 1.98993e-16 0
3.45679 -2.25688e-17 0
3.45679 1.44319e-16 0
3.45679 3.56263e-16 0
3.45679 6.63675e-16 0
4.44444 1.759e-16 0
4.44444 -1.80676e-16 0
4.44444 1.759e-16 0
4.44444 -1.80676e-16 0
4.93827 -2.81446e-16 0
4.93827 -1.33683e-17 0
4.93827 -2.81446e-16 0
4.93827 -1.33683e-17 0
4.93827 2.57925e-16 0
4.93827 3.36576e-16 0
4.93827 2.57925e-16 0
4.93827 3.36576e-16 0
4.44444 1.98993e-16 0
4.44444 2.409e-16 0
4.44444 1.98993e-16 0
4.44444 2.409e-16 0
3.45679 1.44319e-16 0
3.45679 3.80853e-16 0
3.45679 6.63675e-16 0
3.45679 2.09583e-16 0
4.44444 -1.80676e-16 0
4.44444 4.81985e-16 0
4.44444 -1.80676e-16 0
4.44444 4.81985e-16 0
4.93827 -1.33683e-17 0
4.93827 -4.46567e-18 0
4.93827 -1.33683e-17 0
4.93827 -4.46567e-18 0
4.93827 3.36576e-16 0
4.93827 -4.60014e-16 0
4.93827 3.36576e-16 0
4.93827 -4.60014e-16 0
4.44444 2.409e-16 0
4.44444 1.44663e-16 0
4.44444 2.409e-16 0
4.44444 1.44663e-16 0
3.45679 3.80853e-16 0
3.45679 2.08896e-16 0
3.45679 2.09583e-16 0
3.45679 9.40089e-17 0
4.44444 4.81985e-16 0
4.44444 -1.83914e-16 0
4.44444 4.81985e-16 0
4.44444 -1.83914e-16 0
4.93827 -4.46567e-18 0
4.93827 -2.77131e-17 0
4.93827 -4.46567e-18 0
4.93827 -2.77131e-17 0
4.93827 -4.60014e-16 0
4.93827 1.54659e-16 0
4.93827 -4.60014e-16 0
4.93827 1.54659e-16 0
4.44444 1.44663e-16 0
4.44444 2.1009e-16 0
4.44444 1.44663e-16 0
4.44444 2.1009e-16 0
3.45679 2.08896e-16 0
3.45679 5.80633e-16 0
3.45679 9.40089e-17 0
3.45679 -3.74157e-17 0
4.44444 -1.83914e-16 0
4.44444 -2.81947e-17 0
4.44444 -1.83914e-16 0
4.44444 -2.81947e-17 0
4.93827 -2.77131e-17 0
4.93827 4.52314e-17 0
4.93827 -2.77131e-17 0
4.93827 4.52314e-17 0
4.93827 1.54659e-16 0
4.93827 2.52882e-16 0
4.93827 1.54659e-16 0
4.93827 2.52882e-16 0
4.44444 2.1009e-16 0
4.44444 -3.48866e-16 0
4.44444 2.1009e-16 0
4.44444 -3.48866e-16 0
3.45679 5.80633e-16 0
3.45679 2.0416e-16 0
3.45679 -3.74157e-17 0
3.45679 -1.90552e-17 0
4.44444 -2.81947e-17 0
4.44444 3.44963e-16 0
4.44444 -2.81947e-17 0
4.44444 3.44963e-16 0
4.93827 4.52314e-17 0
4.93827 2.4823e-16 0
4.93827 4.52314e-17 0
4.93827 2.4823e-16 0
4.93827 2.52882e-16 0
4.93827 -8.60358e-16 0
4.93827 2.52882e-16 0
4.93827 -8.60358e-16 0
4.44444 -3.48866e-16 0
4.44444 1.04681e-16 0
4.44444 -3.48866e-16 0
4.44444 1.04681e-16 0
3.45679 2.0416e-16 0
3.45679 1.15006e-16 0
3.45679 -1.90552e-17 0
3.45679 5.72946e-17 0
4.44444 3.44963e-16 0
4.44444 -2.94408e-16 0
4.44444 3.44963e-16 0
4.44444 -2.94408e-16 0
4.93827 2.4823e-16 0
4.93827 1.05354e-16 0
4.93827 2.4823e-16 0
4.93827 1.05354e-16 0
4.93827 -8.60358e-16 0
4.93827 3.87199e-16 0
4.93827 -8.60358e-16 0
4.93827 3.87199e-16 0
4.44444 1.04681e-16 0
4.44444 -7.02152e-16 0
4.44444 1.04681e-16 0
4.44444 -7.02152e-16 0
3.45679 1.15006e-16 0
3.45679 3.88592e-16 0
3.45679 5.72946e-17 0
3.45679 -1.04188e-17 0
4.44444 -2.94408e-16 0
4.44444 3.33699e-16 0
4.44444 -2.94408e-16 0
4.44444 3.33699e-16 0
4.93827 1.05354e-16 0
4.93827 5.36102e-16 0
4.93827 1.05354e-16 0
4.93827 5.36102e-16 0
4.93827 3.87199e-16 0
4.93827 1.15133e-15 0
4.93827 3.87199e-16 0
4.93827 1.15133e-15 0
4.44444 -7.02152e-16 0
4.44444 3.7595e-16 0
4.44444 -7.02152e-16 0
4.44444 3.7595e-16 0
3.45679 3.88592e-16 0
3.45679 3.87583e-17 0
3.45679 -1.04188e-17 0
3.45679 4.82188e-16 0
4.44444 3.33699e-16 0
4.44444 1.28188e-16 0
4.44444 3.33699e-16 0
4.44444 1.28188e-16 0
4.93827 5.36102e-16 0
4.93827 9.61718e-16 0
4.93827 5.36102e-16 0
4.93827 9.61718e-16 0
4.93827 1.15133e-15 0
4.93827 -2.65865e-16 0
4.93827 1.15133e-15 0
4.93827 -2.65865e-16 0
4.44444 3.7595e-16 0
4.44444 -9.57406e-16 0
4.44444 3.7595e-16 0
4.44444 -9.57406e-16 0
3.45679 3.87583e-17 0
3.45679 5.0332e-16 0
3.45679 4.82188e-16 0
3.45679 6.87848e-16 0
4.44444 1.28188e-16 0
4.44444 -6.91866e-16 0
4.44444 1.28188e-16 0
4.44444 -6.91866e-16 0
4.93827 9.61718e-16 0
4.93827 -1.63415e-16 0
4.93827 9.61718e-16 0
4.93827 -1.63415e-16 0
4.93827 -2.65865e-16 0
4.93827 -1.4693e-16 0
4.93827 -2.65865e-16 0
4.93827 -1.4693e-16 0
4.44444 -9.57406e-16 0
4.44444 4.86181e-16 0
4.44444 -9.57406e-16 0
4.44444 4.86181e-16 0
3.45679 5.0332e-16 0
3.45679 -8.75503e-17 0
3.45679 6.87848e-16 0
3.45679 -1.77432e-16 0
4.44444 -6.91866e-16 0
4.44444 -3.64383e-16 0
4.44444 -6.91866e-16 0
4.44444 -3.64383e-16 0
4.93827 -1.63415e-16 0
4.93827 -7.37243e-17 0
4.93827 -1.63415e-16 0
4.93827 -7.37243e-17 0
4.93827 -1.4693e-16 0
4.93827 -1.11571e-16 0
4.93827 -1.4693e-16 0
4.93827 -1.11571e-16 0
4.44444 4.86181e-16 0
4.44444 3.14619e-16 0
4.44444 4.86181e-16 0
4.44444 3.14619e-16 0
3.45679 -8.75503e-17 0
3.45679 2.38563e-16 0
3.45679 -1.77432e-16 0
3.45679 5.29039e-17 0
4.44444 -3.64383e-16 0
4.44444 9.25282e-17 0
4.44444 -3.64383e-16 0
4.44444 9.25282e-17 0
4.93827 -7.37243e-17 0
4.93827 3.39394e-16 0
4.93827 -7.37243e-17 0
4.93827 3.39394e-16 0
4.93827 -1.11571e-16 0
4.93827 4.60993e-16 0
4.93827 -1.11571e-16 0
4.93827 4.60993e-16 0
4.44444 3.14619e-16 0
4.44444 -2.95833e-16 0
4.44444 3.14619e-16 0
4.44444 -2.95833e-16 0
3.45679 2.38563e-16 0
3.45679 4.20089e-17 0
3.45679 5.29039e-17 0
3.45679 4.84912e-16 0
4.44444 9.25282e-17 0
4.44444 -1.88505e-16 0
4.44444 9.25282e-17 0
4.44444 -1.88505e-16 0
4.93827 3.39394e-16 0
4.93827 1.34897e-16 0
4.93827 3.39394e-16 0
4.93827 1.34897e-16 0
4.93827 4.60993e-16 0
4.93827 -4.07524e-16 0
4.93827 4.60993e-16 0
4.93827 -4.07524e-16 0
4.44444 -2.95833e-16 0
4.44444 4.44356e-16 0
4.44444 -2.95833e-16 0
4.44444 4.44356e-16 0
3.45679 4.20089e-17 0
3.45679 -2.46044e-16 0
3.45679 4.84912e-16 0
3.45679 6.72571e-16 0
4.44444 -1.88505e-16 0
4.44444 -3.44213e-16 0
4.44444 -1.88505e-16 0
4.44444 -3.44213e-16 0
4.93827 1.34897e-16 0
4.93827 3.69832e-16 0
4.93827 1.34897e-16 0
4.93827 3.69832e-16 0
4.93827 -4.07524e-16 0
4.93827 -8.75516e-17 0
4.93827 -4.07524e-16 0
4.93827 -8.75516e-17 0
4.44444 4.44356e-16 0
4.44444 -1.31037e-17 0
4.44444 4.44356e-16 0
4.44444 -1.31037e-17 0
3.45679 -2.46044e-16 0
3.45679 3.95474e-17 0
3.45679 6.72571e-16 0
3.45679 5.53508e-16 0
4.44444 -3.44213e-16 0
4.44444 1.00852e-16 0
4.44444 -3.44213e-16 0
4.44444 1.00852e-16 0
4.93827 3.69832e-16 0
4.93827 2.82142e-16 0
4.93827 3.69832e-16 0
4.93827 2.82142e-16 0
4.93827 -8.75516e-17 0
4.93827 -1.8968e-16 0
4.93827 -8.75516e-17 0
4.93827 -1.8968e-16 0
4.44444 -1.31037e-17 0
4.44444 -1.77218e-16 0
4.44444 -1.31037e-17 0
4.44444 -1.77218e-16 0
3.45679 3.95474e-17 0
3.45679 5.02099e-16 0
3.45679 5.53508e-16 0
3.45679 2.35474e-16 0
4.44444 1.00852e-16 0
4.44444 4.71174e-16 0
4.44444 1.00852e-16 0
4.44444 4.71174e-16 0
4.93827 2.82142e-16 0
4.93827 -4.91432e-16 0
4.93827 2.82142e-16 0
4.93827 -4.91432e-16 0
4.93827 -1.8968e-16 0
4.93827 5.1713e-16 0
4.93827 -1.8968e-16 0
4.93827 5.1713e-16 0
4.44444 -1.77218e-16 0
4.44444 4.3025e-16 0
4.44444 -1.77218e-16 0
4.44444 4.3025e-16 0
3.45679 5.02099e-16 0
3.45679 3.99192e-16 0
3.45679 2.35474e-16 0
3.45679 1.99082e-16 0
4.44444 4.71174e-16 0
4.44444 9.65144e-17 0
4.44444 4.71174e-16 0
4.44444 9.65144e-17 0
4.93827 -4.91432e-16 0
4.93827 -3.41303e-16 0
4.93827 -4.91432e-16 0
4.93827 -3.41303e-16 0
4.93827 5.1713e-16 0
4.93827 1.06413e-16 0
4.93827 5.1713e-16 0
4.93827 1.06413e-16 0
4.44444 4.3025e-16 0
4.44444 2.29438e-16 0
4.44444 4.3025e-16 0
4.44444 2.29438e-16 0
3.45679 3.99192e-16 0
3.45679 1.01959e-16 0
3.45679 1.99082e-16 0
3.45679 -1.53105e-16 0
4.44444 9.65144e-17 0
4.44444 9.43702e-16 0
4.44444 9.65144e-17 0
4.44444 9.43702e-16 0
4.93827 -3.41303e-16 0
4.93827 1.80069e-16 0
4.93827 -3.41303e-16 0
4.93827 1.80069e-16 0
4.93827 1.06413e-16 0
4.93827 -5.54342e-16 0
4.93827 1.06413e-16 0
4.93827 -5.54342e-16 0
4.44444 2.29438e-16 0
4.44444 2.55078e-16 0
4.44444 2.29438e-16 0
4.44444 2.55078e-16 0
3.45679 1.01959e-16 0
3.45679 2.3424e-16 0
3.45679 -1.53105e-16 0
3.45679 -1.36566e-16 0
4.44444 9.43702e-16 0
4.44444 5.18585e-17 0
4.44444 9.43702e-16 0
4.44444 5.18585e-17 0
4.93827 1.80069e-16 0
4.93827 -9.50424e-17 0
4.93827 1.80069e-16 0
4.93827 -9.50424e-17 0
4.93827 -5.54342e-16 0
4.93827 9.70059e-16 0
4.93827 -5.54342e-16 0
4.93827 9.70059e-16 0
4.44444 2.55078e-16 0
4.44444 6.63705e-17 0
4.44444 2.55078e-16 0
4.44444 6.63705e-17 0
3.45679 2.3424e-16 0
3.45679 2.56426e-17 0
3.45679 -1.36566e-16 0
3.45679 -1.61653e-16 0
4.44444 5.18585e-17 0
4.44444 3.56657e-16 0
4.44444 5.18585e-17 0
4.44444 3.56657e-16 0
4.93827 -9.50424e-17 0
4.93827 4.4076e-16 0
4.93827 -9.50424e-17 0
4.93827 4.4076e-16 0
4.93827 9.70059e-16 0
4.93827 -1.26966e-17 0
4.93827 9.70059e-16 0
4.93827 -1.26966e-17 0
4.44444 6.63705e-17 0
4.44444 -3.57427e-16 0
4.44444 6.63705e-17 0
4.44444 -3.57427e-16 0
3.45679 2.56426e-17 0
3.45679 4.91856e-16 0
3.45679 -1.61653e-16 0
3.45679 2.18722e-16 0
4.44444 3.56657e-16 0
4.44444 -4.82732e-16 0
4.44444 3.56657e-16 0
4.44444 -4.82732e-16 0
4.93827 4.4076e-16 0
4.93827 3.66729e-16 0
4.93827 4.4076e-16 0
4.93827 3.66729e-16 0
4.93827 -1.26966e-17 0
4.93827 -7.69327e-16 0
4.93827 -1.26966e-17 0
4.93827 -7.69327e-16 0
4.44444 -3.57427e-16 0
4.44444 -1.45792e-17 0
4.44444 -3.57427e-16 0
4.44444 -1.45792e-17 0
3.45679 4.91856e-16 0
3.45679 6.97939e-17 0
3.45679 2.18722e-16 0
3.45679 2.43261e-16 0
4.44444 -4.82732e-16 0
4.44444 -3.27994e-16 0
4.44444 -4.82732e-16 0
4.44444 -3.27994e-16 0
4.93827 3.66729e-16 0
4.93827 2.85481e-16 0
4.93827 3.66729e-16 0
4.93827 2.85481e-16 0
4.93827 -7.69327e-16 0
4.93827 -2.88681e-16 0
4.93827 -7.69327e-16 0
4.93827 -2.88681e-16 0
4.44444 -1.45792e-17 0
4.44444 1.62389e-16 0
4.44444 -1.45792e-17 0