# vtk DataFile Version 3.0
#This file was generated by the deal.II library on 2026/4/15 at 14:55:01
ASCII
DATASET UNSTRUCTURED_GRID

POINTS 60264 double
0.505051 0 0
0.606061 0 0
0.505051 0.125 0
0.606061 0.125 0
0.505051 0.125 0
0.606061 0.125 0
0.505051 0.25 0
0.606061 0.25 0
0.606061 0 0
0.707071 0 0
0.606061 0.125 0
0.707071 0.125 0
0.606061 0.125 0
0.707071 0.125 0
0.606061 0.25 0
0.707071 0.25 0
0.707071 0 0
0.808081 0 0
0.707071 0.125 0
0.808081 0.125 0
0.707071 0.125 0
0.808081 0.125 0
0.707071 0.25 0
0.808081 0.25 0
0.808081 0 0
0.909091 0 0
0.808081 0.125 0
0.909091 0.125 0
0.808081 0.125 0
0.909091 0.125 0
0.808081 0.25 0
0.909091 0.25 0
0.909091 0 0
1.0101 0 0
0.909091 0.125 0
1.0101 0.125 0
0.909091 0.125 0
1.0101 0.125 0
0.909091 0.25 0
1.0101 0.25 0
1.0101 0 0
1.11111 0 0
1.0101 0.125 0
1.11111 0.125 0
1.0101 0.125 0
1.11111 0.125 0
1.0101 0.25 0
1.11111 0.25 0
1.11111 0 0
1.21212 0 0
1.11111 0.125 0
1.21212 0.125 0
1.11111 0.125 0
1.21212 0.125 0
1.11111 0.25 0
1.21212 0.25 0
1.21212 0 0
1.31313 0 0
1.21212 0.125 0
1.31313 0.125 0
1.21212 0.125 0
1.31313 0.125 0
1.21212 0.25 0
1.31313 0.25 0
1.31313 0 0
1.41414 0 0
1.31313 0.125 0
1.41414 0.125 0
1.31313 0.125 0
1.41414 0.125 0
1.31313 0.25 0
1.41414 0.25 0
1.41414 0 0
1.51515 0 0
1.41414 0.125 0
1.51515 0.125 0
1.41414 0.125 0
1.51515 0.125 0
1.41414 0.25 0
1.51515 0.25 0
1.51515 0 0
1.61616 0 0
1.51515 0.125 0
1.61616 0.125 0
1.51515 0.125 0
1.61616 0.125 0
1.51515 0.25 0
1.61616 0.25 0
1.61616 0 0
1.71717 0 0
1.61616 0.125 0
1.71717 0.125 0
1.61616 0.125 0
1.71717 0.125 0
1.61616 0.25 0
1.71717 0.25 0
1.71717 0 0
1.81818 0 0
1.71717 0.125 0
1.81818 0.125 0
1.71717 0.125 0
1.81818 0.125 0
1.71717 0.25 0
1.81818 0.25 0
1.81818 0 0
1.91919 0 0
1.81818 0.125 0
1.91919 0.125 0
1.81818 0.125 0
1.91919 0.125 0
1.81818 0.25 0
1.91919 0.25 0
1.91919 0 0
2.0202 0 0
1.91919 0.125 0
2.0202 0.125 0
1.91919 0.125 0
2.0202 0.125 0
1.91919 0.25 0
2.0202 0.25 0
2.0202 0 0
2.12121 0 0
2.0202 0.125 0
2.12121 0.125 0
2.0202 0.125 0
2.12121 0.125 0
2.0202 0.25 0
2.12121 0.25 0
2.12121 0 0
2.22222 0 0
2.12121 0.125 0
2.22222 0.125 0
2.12121 0.125 0
2.22222 0.125 0
2.12121 0.25 0
2.22222 0.25 0
2.22222 0 0
2.32323 0 0
2.22222 0.125 0
2.32323 0.125 0
2.22222 0.125 0
2.32323 0.125 0
2.22222 0.25 0
2.32323 0.25 0
2.32323 0 0
2.42424 0 0
2.32323 0.125 0
2.42424 0.125 0
2.32323 0.125 0
2.42424 0.125 0
2.32323 0.25 0
2.42424 0.25 0
2.42424 0 0
2.52525 0 0
2.42424 0.125 0
2.52525 0.125 0
2.42424 0.125 0
2.52525 0.125 0
2.42424 0.25 0
2.52525 0.25 0
2.52525 0 0
2.62626 0 0
2.52525 0.125 0
2.62626 0.125 0
2.52525 0.125 0
2.62626 0.125 0
2.52525 0.25 0
2.62626 0.25 0
2.62626 0 0
2.72727 0 0
2.62626 0.125 0
2.72727 0.125 0
2.62626 0.125 0
2.72727 0.125 0
2.62626 0.25 0
2.72727 0.25 0
2.72727 0 0
2.82828 0 0
2.72727 0.125 0
2.82828 0.125 0
2.72727 0.125 0
2.82828 0.125 0
2.72727 0.25 0
2.82828 0.25 0
2.82828 0 0
2.92929 0 0
2.82828 0.125 0
2.92929 0.125 0
2.82828 0.125 0
2.92929 0.125 0
2.82828 0.25 0
2.92929 0.25 0
2.92929 0 0
3.0303 0 0
2.92929 0.125 0
3.0303 0.125 0
2.92929 0.125 0
3.0303 0.125 0
2.92929 0.25 0
3.0303 0.25 0
3.0303 0 0
3.13131 0 0
3.0303 0.125 0
3.13131 0.125 0
3.0303 0.125 0
3.13131 0.125 0
3.0303 0.25 0
3.13131 0.25 0
3.13131 0 0
3.23232 0 0
3.13131 0.125 0
3.23232 0.125 0
3.13131 0.125 0
3.23232 0.125 0
3.13131 0.25 0
3.23232 0.25 0
3.23232 0 0
3.33333 0 0
3.23232 0.125 0
3.33333 0.125 0
3.23232 0.125 0
3.33333 0.125 0
3.23232 0.25 0
3.33333 0.25 0
3.33333 0 0
3.43434 0 0
3.33333 0.125 0
3.43434 0.125 0
3.33333 0.125 0
3.43434 0.125 0
3.33333 0.25 0
3.43434 0.25 0
3.43434 0 0
3.53535 0 0
3.43434 0.125 0
3.53535 0.125 0
3.43434 0.125 0
3.53535 0.125 0
3.43434 0.25 0
3.53535 0.25 0
3.53535 0 0
3.63636 0 0
3.53535 0.125 0
3.63636 0.125 0
3.53535 0.125 0
3.63636 0.125 0
3.53535 0.25 0
3.63636 0.25 0
3.63636 0 0
3.73737 0 0
3.63636 0.125 0
3.73737 0.125 0
3.63636 0.125 0
3.73737 0.125 0
3.63636 0.25 0
3.73737 0.25 0
3.73737 0 0
3.83838 0 0
3.73737 0.125 0
3.83838 0.125 0
3.73737 0.125 0
3.83838 0.125 0
3.73737 0.25 0
3.83838 0.25 0
3.83838 0 0
3.93939 0 0
3.83838 0.125 0
3.93939 0.125 0
3.83838 0.125 0
3.93939 0.125 0
3.83838 0.25 0
3.93939 0.25 0
3.93939 0 0
4.0404 0 0
3.93939 0.125 0
4.0404 0.125 0
3.93939 0.125 0
4.0404 0.125 0
3.93939 0.25 0
4.0404 0.25 0
4.0404 0 0
4.14141 0 0
4.0404 0.125 0
4.14141 0.125 0
4.0404 0.125 0
4.14141 0.125 0
4.0404 0.25 0
4.14141 0.25 0
4.14141 0 0
4.24242 0 0
4.14141 0.125 0
4.24242 0.125 0
4.14141 0.125 0
4.24242 0.125 0
4.14141 0.25 0
4.24242 0.25 0
4.24242 0 0
4.34343 0 0
4.24242 0.125 0
4.34343 0.125 0
4.24242 0.125 0
4.34343 0.125 0
4.24242 0.25 0
4.34343 0.25 0
4.34343 0 0
4.44444 0 0
4.34343 0.125 0
4.44444 0.125 0
4.34343 0.125 0
4.44444 0.125 0
4.34343 0.25 0
4.44444 0.25 0
4.44444 0 0
4.54545 0 0
4.44444 0.125 0
4.54545 0.125 0
4.44444 0.125 0
4.54545 0.125 0
4.44444 0.25 0
4.54545 0.25 0
4.54545 0 0
4.64646 0 0
4.54545 0.125 0
4.64646 0.125 0
4.54545 0.125 0
4.64646 0.125 0
4.54545 0.25 0
4.64646 0.25 0
4.64646 0 0
4.74747 0 0
4.64646 0.125 0
4.74747 0.125 0
4.64646 0.125 0
4.74747 0.125 0
4.64646 0.25 0
4.74747 0.25 0
4.74747 0 0
4.84848 0 0
4.74747 0.125 0
4.84848 0.125 0
4.74747 0.125 0
4.84848 0.125 0
4.74747 0.25 0
4.84848 0.25 0
4.84848 0 0
4.94949 0 0
4.84848 0.125 0
4.94949 0.125 0
4.84848 0.125 0
4.94949 0.125 0
4.84848 0.25 0
4.94949 0.25 0
4.94949 0 0
5.05051 0 0
4.94949 0.125 0
5.05051 0.125 0
4.94949 0.125 0
5.05051 0.125 0
4.94949 0.25 0
5.05051 0.25 0
5.05051 0 0
5.15152 0 0
5.05051 0.125 0
5.15152 0.125 0
5.05051 0.125 0
5.15152 0.125 0
5.05051 0.25 0
5.15152 0.25 0
5.15152 0 0
5.25253 0 0
5.15152 0.125 0
5.25253 0.125 0
5.15152 0.125 0
5.25253 0.125 0
5.15152 0.25 0
5.25253 0.25 0
5.25253 0 0
5.35354 0 0
5.25253 0.125 0
5.35354 0.125 0
5.25253 0.125 0
5.35354 0.125 0
5.25253 0.25 0
5.35354 0.25 0
5.35354 0 0
5.45455 0 0
5.35354 0.125 0
5.45455 0.125 0
5.35354 0.125 0
5.45455 0.125 0
5.35354 0.25 0
5.45455 0.25 0
5.45455 0 0
5.55556 0 0
5.45455 0.125 0
5.55556 0.125 0
5.45455 0.125 0
5.55556 0.125 0
5.45455 0.25 0
5.55556 0.25 0
5.55556 0 0
5.65657 0 0
5.55556 0.125 0
5.65657 0.125 0
5.55556 0.125 0
5.65657 0.125 0
5.55556 0.25 0
5.65657 0.25 0
5.65657 0 0
5.75758 0 0
5.65657 0.125 0
5.75758 0.125 0
5.65657 0.125 0
5.75758 0.125 0
5.65657 0.25 0
5.75758 0.25 0
5.75758 0 0
5.85859 0 0
5.75758 0.125 0
5.85859 0.125 0
5.75758 0.125 0
5.85859 0.125 0
5.75758 0.25 0
5.85859 0.25 0
5.85859 0 0
5.9596 0 0
5.85859 0.125 0
5.9596 0.125 0
5.85859 0.125 0
5.9596 0.125 0
5.85859 0.25 0
5.9596 0.25 0
5.9596 0 0
6.06061 0 0
5.9596 0.125 0
6.06061 0.125 0
5.9596 0.125 0
6.06061 0.125 0
5.9596 0.25 0
6.06061 0.25 0
6.06061 0 0
6.16162 0 0
6.06061 0.125 0
6.16162 0.125 0
6.06061 0.125 0
6.16162 0.125 0
6.06061 0.25 0
6.16162 0.25 0
6.16162 0 0
6.26263 0 0
6.16162 0.125 0
6.26263 0.125 0
6.16162 0.125 0
6.26263 0.125 0
6.16162 0.25 0
6.26263 0.25 0
6.26263 0 0
6.36364 0 0
6.26263 0.125 0
6.36364 0.125 0
6.26263 0.125 0
6.36364 0.125 0
6.26263 0.25 0
6.36364 0.25 0
6.36364 0 0
6.46465 0 0
6.36364 0.125 0
6.46465 0.125 0
6.36364 0.125 0
6.46465 0.125 0
6.36364 0.25 0
6.46465 0.25 0
6.46465 0 0
6.56566 0 0
6.46465 0.125 0
6.56566 0.125 0
6.46465 0.125 0
6.56566 0.125 0
6.46465 0.25 0
6.56566 0.25 0
6.56566 0 0
6.66667 0 0
6.56566 0.125 0
6.66667 0.125 0
6.56566 0.125 0
6.66667 0.125 0
6.56566 0.25 0
6.66667 0.25 0
6.66667 0 0
6.76768 0 0
6.66667 0.125 0
6.76768 0.125 0
6.66667 0.125 0
6.76768 0.125 0
6.66667 0.25 0
6.76768 0.25 0
6.76768 0 0
6.86869 0 0
6.76768 0.125 0
6.86869 0.125 0
6.76768 0.125 0
6.86869 0.125 0
6.76768 0.25 0
6.86869 0.25 0
6.86869 0 0
6.9697 0 0
6.86869 0.125 0
6.9697 0.125 0
6.86869 0.125 0
6.9697 0.125 0
6.86869 0.25 0
6.9697 0.25 0
6.9697 0 0
7.07071 0 0
6.9697 0.125 0
7.07071 0.125 0
6.9697 0.125 0
7.07071 0.125 0
6.9697 0.25 0
7.07071 0.25 0
7.07071 0 0
7.17172 0 0
7.07071 0.125 0
7.17172 0.125 0
7.07071 0.125 0
7.17172 0.125 0
7.07071 0.25 0
7.17172 0.25 0
7.17172 0 0
7.27273 0 0
7.17172 0.125 0
7.27273 0.125 0
7.17172 0.125 0
7.27273 0.125 0
7.17172 0.25 0
7.27273 0.25 0
7.27273 0 0
7.37374 0 0
7.27273 0.125 0
7.37374 0.125 0
7.27273 0.125 0
7.37374 0.125 0
7.27273 0.25 0
7.37374 0.25 0
7.37374 0 0
7.47475 0 0
7.37374 0.125 0
7.47475 0.125 0
7.37374 0.125 0
7.47475 0.125 0
7.37374 0.25 0
7.47475 0.25 0
7.47475 0 0
7.57576 0 0
7.47475 0.125 0
7.57576 0.125 0
7.47475 0.125 0
7.57576 0.125 0
7.47475 0.25 0
7.57576 0.25 0
7.57576 0 0
7.67677 0 0
7.57576 0.125 0
7.67677 0.125 0
7.57576 0.125 0
7.67677 0.125 0
7.57576 0.25 0
7.67677 0.25 0
7.67677 0 0
7.77778 0 0
7.67677 0.125 0
7.77778 0.125 0
7.67677 0.125 0
7.77778 0.125 0
7.67677 0.25 0
7.77778 0.25 0
7.77778 0 0
7.87879 0 0
7.77778 0.125 0
7.87879 0.125 0
7.77778 0.125 0
7.87879 0.125 0
7.77778 0.25 0
7.87879 0.25 0
7.87879 0 0
7.9798 0 0
7.87879 0.125 0
7.9798 0.125 0
7.87879 0.125 0
7.9798 0.125 0
7.87879 0.25 0
7.9798 0.25 0
7.9798 0 0
8.08081 0 0
7.9798 0.125 0
8.08081 0.125 0
7.9798 0.125 0
8.08081 0.125 0
7.9798 0.25 0
8.08081 0.25 0
8.08081 0 0
8.18182 0 0
8.08081 0.125 0
8.18182 0.125 0
8.08081 0.125 0
8.18182 0.125 0
8.08081 0.25 0
8.18182 0.25 0
8.18182 0 0
8.28283 0 0
8.18182 0.125 0
8.28283 0.125 0
8.18182 0.125 0
8.28283 0.125 0
8.18182 0.25 0
8.28283 0.25 0
8.28283 0 0
8.38384 0 0
8.28283 0.125 0
8.38384 0.125 0
8.28283 0.125 0
8.38384 0.125 0
8.28283 0.25 0
8.38384 0.25 0
8.38384 0 0
8.48485 0 0
8.38384 0.125 0
8.48485 0.125 0
8.38384 0.125 0
8.48485 0.125 0
8.38384 0.25 0
8.48485 0.25 0
8.48485 0 0
8.58586 0 0
8.48485 0.125 0
8.58586 0.125 0
8.48485 0.125 0
8.58586 0.125 0
8.48485 0.25 0
8.58586 0.25 0
8.58586 0 0
8.68687 0 0
8.58586 0.125 0
8.68687 0.125 0
8.58586 0.125 0
8.68687 0.125 0
8.58586 0.25 0
8.68687 0.25 0
8.68687 0 0
8.78788 0 0
8.68687 0.125 0
8.78788 0.125 0
8.68687 0.125 0
8.78788 0.125 0
8.68687 0.25 0
8.78788 0.25 0
8.78788 0 0
8.88889 0 0
8.78788 0.125 0
8.88889 0.125 0
8.78788 0.125 0
8.88889 0.125 0
8.78788 0.25 0
8.88889 0.25 0
8.88889 0 0
8.9899 0 0
8.88889 0.125 0
8.9899 0.125 0
8.88889 0.125 0
[...]
POINT_DATA 60264
VECTORS velocity double
0 0 0
0 0 0
0 0 0
0 0 0
0 0 0
0 0 0
0 0 0
0 0 0
0 0 0
0 0 0
0 0 0
0 0 0
0 0 0
0 0 0
0 0 0
0 0 0
0 0 0
0 0 0
0 0 0
0 0 0
0 0 0
0 0 0
0 0 0
0 0 0
0 0 0
0 0 0
0 0 0
0 0 0
0 0 0
0 0 0
0 0 0
0 0 0
0 0 0
0 0 0
0 0 0
0 0 0
0 0 0
0 0 0
0 0 0
0 0 0
0 0 0
0 0 0
0 0 0
0 0 0
0 0 0
0 0 0
0 0 0
0 0 0
0 0 0
0 0 0
0 0 0
0 0 0
0 0 0
0 0 0
0 0 0
0 0 0
0 0 0
0 0 0
0 0 0
0 0 0
0 0 0
0 0 0
0 0 0
0 0 0
0 0 0
0 0 0
0 0 0
0 0 0
0 0 0
0 0 0
0 0 0
0 0 0
0 0 0
0 0 0
0 0 0
0 0 0
0 0 0
0 0 0
0 0 0
0 0 0
0 0 0
0 0 0
0 0 0
0 0 0
0 0 0
0 0 0
0 0 0
0 0 0
0 0 0
0 0 0
0 0 0
0 0 0
0 0 0
0 0 0
0 0 0
0 0 0
0 0 0
0 0 0
0 0 0
0 0 0
0 0 0
0 0 0
0 0 0
0 0 0
0 0 0
0 0 0
0 0 0
0 0 0
0 0 0
0 0 0
0 0 0
0 0 0
0 0 0
0 0 0
0 0 0
0 0 0
0 0 0
0 0 0
0 0 0
0 0 0
0 0 0
0 0 0
0 0 0
0 0 0
0 0 0
0 0 0
0 0 0
0 0 0
0 0 0
0 0 0
0 0 0
0 0 0
0 0 0
0 0 0
0 0 0
0 0 0
0 0 0
0 0 0
0 0 0
0 0 0
0 0 0
0 0 0
0 0 0
0 0 0
0 0 0
0 0 0
0 0 0
0 0 0
0 0 0
0 0 0
0 0 0
0 0 0
0 0 0
0 0 0
0 0 0
0 0 0
0 0 0
0 0 0
0 0 0
0 0 0
0 0 0
0 0 0
0 0 0
0 0 0
0 0 0
0 0 0
0 0 0
0 0 0
0 0 0
0 0 0
0 0 0
0 0 0
0 0 0
0 0 0
0 0 0
0 0 0
0 0 0
0 0 0
0 0 0
0 0 0
0 0 0
0 0 0
0 0 0
0 0 0
0 0 0
0 0 0
0 0 0
0 0 0
0 0 0
0 0 0
0 0 0
0 0 0
0 0 0
0 0 0
0 0 0
0 0 0
0 0 0
0 0 0
0 0 0
0 0 0
0 0 0
0 0 0
0 0 0
0 0 0
0 0 0
0 0 0
0 0 0
0 0 0
0 0 0
0 0 0
0 0 0
0 0 0
0 0 0
0 0 0
0 0 0
0 0 0
0 0 0
0 0 0
0 0 0
0 0 0
0 0 0
0 0 0
0 0 0
0 0 0
0 0 0
0 0 0
0 0 0
0 0 0
0 0 0
0 0 0
0 0 0
0 0 0
0 0 0
0 0 0
0 0 0
0 0 0
0 0 0
0 0 0
0 0 0
0 0 0
0 0 0
0 0 0
0 0 0
0 0 0
0 0 0
0 0 0
0 0 0
0 0 0
0 0 0
0 0 0
0 0 0
0 0 0
0 0 0
0 0 0
0 0 0
0 0 0
0 0 0
0 0 0
0 0 0
0 0 0
0 0 0
0 0 0
0 0 0
0 0 0
0 0 0
0 0 0
0 0 0
0 0 0
0 0 0
0 0 0
0 0 0
0 0 0
0 0 0
0 0 0
0 0 0
0 0 0
0 0 0
0 0 0
0 0 0
0 0 0
0 0 0
0 0 0
0 0 0
0 0 0
0 0 0
0 0 0
0 0 0
0 0 0
0 0 0
0 0 0
0 0 0
0 0 0
0 0 0
0 0 0
0 0 0
0 0 0
0 0 0
0 0 0
0 0 0
0 0 0
0 0 0
0 0 0
0 0 0
0 0 0
0 0 0
0 0 0
0 0 0
0 0 0
0 0 0
0 0 0
0 0 0
0 0 0
0 0 0
0 0 0
0 0 0
0 0 0
0 0 0
0 0 0
0 0 0
0 0 0
0 0 0
0 0 0
0 0 0
0 0 0
0 0 0
0 0 0
0 0 0
0 0 0
0 0 0
0 0 0
0 0 0
0 0 0
0 0 0
0 0 0
0 0 0
0 0 0
0 0 0
0 0 0
0 0 0
0 0 0
0 0 0
0 0 0
0 0 0
0 0 0
0 0 0
0 0 0
0 0 0
0 0 0
0 0 0
0 0 0
0 0 0
0 0 0
0 0 0
0 0 0
0 0 0
0 0 0
0 0 0
0 0 0
0 0 0
0 0 0
0 0 0
0 0 0
0 0 0
0 0 0
0 0 0
0 0 0
0 0 0
0 0 0
0 0 0
0 0 0
0 0 0
0 0 0
0 0 0
0 0 0
0 0 0
0 0 0
0 0 0
0 0 0
0 0 0
0 0 0
0 0 0
0 0 0
0 0 0
0 0 0
0 0 0
0 0 0
0 0 0
0 0 0
0 0 0
0 0 0
0 0 0
0 0 0
0 0 0
0 0 0
0 0 0
0 0 0
0 0 0
0 0 0
0 0 0
0 0 0
0 0 0
0 0 0
0 0 0
0 0 0
0 0 0
0 0 0
0 0 0
0 0 0
0 0 0
0 0 0
0 0 0
0 0 0
0 0 0
0 0 0
0 0 0
0 0 0
0 0 0
0 0 0
0 0 0
0 0 0
0 0 0
0 0 0
0 0 0
0 0 0
0 0 0
0 0 0
0 0 0
0 0 0
0 0 0
0 0 0
0 0 0
0 0 0
0 0 0
0 0 0
0 0 0
0 0 0
0 0 0
0 0 0
0 0 0
0 0 0
0 0 0
0 0 0
0 0 0
0 0 0
0 0 0
0 0 0
0 0 0
0 0 0
0 0 0
0 0 0
0 0 0
0 0 0
0 0 0
0 0 0
0 0 0
0 0 0
0 0 0
0 0 0
0 0 0
0 0 0
0 0 0
0 0 0
0 0 0
0 0 0
0 0 0
0 0 0
0 0 0
0 0 0
0 0 0
0 0 0
0 0 0
0 0 0
0 0 0
0 0 0
0 0 0
0 0 0
0 0 0
0 0 0
0 0 0
0 0 0
0 0 0
0 0 0
0 0 0
0 0 0
0 0 0
0 0 0
0 0 0
0 0 0
0 0 0
0 0 0
0 0 0
0 0 0
0 0 0
0 0 0
0 0 0
0 0 0
0 0 0
0 0 0
0 0 0
0 0 0
0 0 0
0 0 0
0 0 0
0 0 0
0 0 0
0 0 0
0 0 0
0 0 0
0 0 0
0 0 0
0 0 0
0 0 0
0 0 0
0 0 0
0 0 0
0 0 0
0 0 0
0 0 0
0 0 0
0 0 0
0 0 0
0 0 0
0 0 0
0 0 0
0 0 0
0 0 0
0 0 0
0 0 0
0 0 0
0 0 0
0 0 0
0 0 0
0 0 0
0 0 0
0 0 0
0 0 0
0 0 0
0 0 0
0 0 0
0 0 0
0 0 0
0 0 0
0 0 0
0 0 0
0 0 0
0 0 0
0 0 0
0 0 0
0 0 0
0 0 0
0 0 0
0 0 0
0 0 0
0 0 0
0 0 0
0 0 0
0 0 0
0 0 0
0 0 0
0 0 0
0 0 0
0 0 0
0 0 0
0 0 0
0 0 0
0 0 0
0 0 0
0 0 0
0 0 0
0 0 0
0 0 0
0 0 0
0 0 0
0 0 0
0 0 0
0 0 0
0 0 0
0 0 0
0 0 0
0 0 0
0 0 0
0 0 0
0 0 0
0 0 0
0 0 0
0 0 0
0 0 0
0 0 0
0 0 0
0 0 0
0 0 0
0 0 0
0 0 0
0 0 0
0 0 0
0 0 0
0 0 0
0 0 0
0 0 0
0 0 0
0 0 0
0 0 0
0 0 0
0 0 0
0 0 0
0 0 0
0 0 0
0 0 0
0 0 0
0 0 0
0 0 0
0 0 0
0 0 0
0 0 0
0 0 0
0 0 0
0 0 0
0 0 0
0 0 0
0 0 0
0 0 0
0 0 0
0 0 0
0 0 0
0 0 0
0 0 0
0 0 0
0 0 0
0 0 0
0 0 0
0 0 0
0 0 0
0 0 0
0 0 0
0 0 0
0 0 0
0 0 0
0 0 0
0 0 0
0 0 0
0 0 0
0 0 0
0 0 0
0 0 0
0 0 0
0 0 0
0 0 0
0 0 0
0 0 0
0 0 0
0 0 0
0 0 0
0 0 0
0 0 0
0 0 0
0 0 0
0 0 0
0 0 0
0 0 0
0 0 0
0 0 0
0 0 0
0 0 0
0 0 0
0 0 0
0 0 0
0 0 0
0 0 0
0 0 0
0 0 0
0 0 0
0 0 0
0 0 0
0 0 0
0 0 0
0 0 0
0 0 0
0 0 0
0 0 0
0 0 0
0 0 0
0 0 0
0 0 0
0 0 0
0 0 0
0 0 0
0 0 0
0 0 0
0 0 0
0 0 0
0 0 0
0 0 0
0 0 0
0 0 0
0 0 0
0 0 0
0 0 0
0 0 0
0 0 0
0 0 0
0 0 0
0 0 0
0 0 0
0 0 0
0 0 0
0 0 0
0 0 0
0 0 0
0 0 0
0 0 0
0 0 0
0 0 0
0 0 0
0 0 0
0 0 0
0 0 0
0 0 0
0 0 0
0 0 0
0 0 0
0 0 0
0 0 0
0 0 0
0 0 0
0 0 0
0 0 0
0 0 0
0 0 0
0 0 0
0 0 0
0 0 0
0 0 0
0 0 0
0 0 0
0 0 0
0 0 0
0 0 0
0 0 0
0 0 0
0 0 0
0 0 0
0 0 0
0 0 0
0 0 0
0 0 0
0 0 0
0 0 0
0 0 0
0 0 0
0 0 0
0 0 0
0 0 0
0.691358 8.3161e-17 0
0.691358 5.31811e-17 0
0.888889 7.73114e-17 0
0.888889 3.21916e-16 0
0.888889 7.73114e-17 0
0.888889 3.21916e-16 0
0.987654 1.52669e-17 0
0.987654 -2.79522e-16 0
0.691358 5.31811e-17 0
0.691358 3.76775e-17 0
0.888889 3.21916e-16 0
0.888889 1.29441e-16 0
0.888889 3.21916e-16 0
0.888889 1.29441e-16 0
0.987654 -2.79522e-16 0
0.987654 -2.51785e-17 0
0.987654 -2.79522e-16 0
0.987654 -2.51785e-17 0
0.987654 1.38158e-16 0
0.987654 1.50181e-16 0
0.987654 1.38158e-16 0
0.987654 1.50181e-16 0
0.888889 1.65031e-16 0
0.888889 7.48015e-17 0
0.691358 3.76775e-17 0
0.691358 3.23784e-17 0
0.888889 1.29441e-16 0
0.888889 -1.34734e-16 0
0.888889 1.29441e-16 0
0.888889 -1.34734e-16 0
0.987654 -2.51785e-17 0
0.987654 3.28613e-16 0
0.987654 -2.51785e-17 0
0.987654 3.28613e-16 0
0.987654 1.50181e-16 0
0.987654 8.0148e-18 0
0.987654 1.50181e-16 0
0.987654 8.0148e-18 0
0.888889 7.48015e-17 0
0.888889 1.33677e-16 0
0.691358 3.23784e-17 0
0.691358 -5.58057e-18 0
0.888889 -1.34734e-16 0
0.888889 1.39296e-16 0
0.888889 -1.34734e-16 0
0.888889 1.39296e-16 0
0.987654 3.28613e-16 0
0.987654 -2.82306e-17 0
0.987654 3.28613e-16 0
0.987654 -2.82306e-17 0
0.987654 8.0148e-18 0
0.987654 1.83737e-16 0
0.987654 8.0148e-18 0
0.987654 1.83737e-16 0
0.888889 1.33677e-16 0
0.888889 1.65266e-16 0
0.691358 -5.58057e-18 0
0.691358 6.82478e-17 0
0.888889 1.39296e-16 0
0.888889 -5.51342e-17 0
0.888889 1.39296e-16 0
0.888889 -5.51342e-17 0
0.987654 -2.82306e-17 0
0.987654 2.29536e-16 0
0.987654 -2.82306e-17 0
0.987654 2.29536e-16 0
0.987654 1.83737e-16 0
0.987654 3.4698e-17 0
0.987654 1.83737e-16 0
0.987654 3.4698e-17 0
0.888889 1.65266e-16 0
0.888889 1.12877e-16 0
0.888889 1.65266e-16 0
0.888889 1.12877e-16 0
0.691358 -1.14359e-16 0
0.691358 1.498e-16 0
0.691358 6.82478e-17 0
0.691358 9.03957e-17 0
0.888889 -5.51342e-17 0
0.888889 7.29665e-17 0
0.888889 -5.51342e-17 0
0.888889 7.29665e-17 0
0.987654 2.29536e-16 0
0.987654 7.79861e-17 0
0.987654 2.29536e-16 0
0.987654 7.79861e-17 0
0.987654 3.4698e-17 0
0.987654 9.70016e-17 0
0.987654 3.4698e-17 0
0.987654 9.70016e-17 0
0.888889 1.12877e-16 0
0.888889 -1.61508e-16 0
0.888889 1.12877e-16 0
0.888889 -1.61508e-16 0
0.691358 1.498e-16 0
0.691358 1.45736e-16 0
0.691358 9.03957e-17 0
0.691358 1.55437e-17 0
0.888889 7.29665e-17 0
0.888889 1.25158e-16 0
0.888889 7.29665e-17 0
0.888889 1.25158e-16 0
0.987654 7.79861e-17 0
0.987654 -2.06071e-17 0
0.987654 7.79861e-17 0
0.987654 -2.06071e-17 0
0.987654 9.70016e-17 0
0.987654 2.39413e-16 0
0.987654 9.70016e-17 0
0.987654 2.39413e-16 0
0.888889 -1.61508e-16 0
0.888889 1.45603e-16 0
0.888889 -1.61508e-16 0
0.888889 1.45603e-16 0
0.691358 1.45736e-16 0
0.691358 3.04208e-17 0
0.691358 1.55437e-17 0
0.691358 4.10884e-17 0
0.888889 1.25158e-16 0
0.888889 1.63391e-16 0
0.888889 1.25158e-16 0
0.888889 1.63391e-16 0
0.987654 -2.06071e-17 0
0.987654 1.50299e-17 0
0.987654 -2.06071e-17 0
0.987654 1.50299e-17 0
0.987654 2.39413e-16 0
0.987654 2.11996e-16 0
0.987654 2.39413e-16 0
0.987654 2.11996e-16 0
0.888889 1.45603e-16 0
0.888889 4.61788e-17 0
0.888889 1.45603e-16 0
0.888889 4.61788e-17 0
0.691358 3.04208e-17 0
0.691358 1.55945e-16 0
0.691358 4.10884e-17 0
0.691358 1.6036e-16 0
0.888889 1.63391e-16 0
0.888889 1.86567e-16 0
0.888889 1.63391e-16 0
0.888889 1.86567e-16 0
0.987654 1.50299e-17 0
0.987654 1.66135e-17 0
0.987654 1.50299e-17 0
0.987654 1.66135e-17 0
0.987654 2.11996e-16 0
0.987654 -1.77179e-16 0
0.987654 2.11996e-16 0
0.987654 -1.77179e-16 0
0.888889 4.61788e-17 0
0.888889 3.30558e-16 0
0.888889 4.61788e-17 0
0.888889 3.30558e-16 0
0.691358 1.55945e-16 0
0.691358 4.02106e-17 0
0.691358 1.6036e-16 0
0.691358 -2.3903e-17 0
0.888889 1.86567e-16 0
0.888889 1.23271e-16 0
0.888889 1.86567e-16 0
0.888889 1.23271e-16 0
0.987654 1.66135e-17 0
0.987654 4.61329e-17 0
0.987654 1.66135e-17 0
0.987654 4.61329e-17 0
0.987654 -1.77179e-16 0
0.987654 3.75944e-16 0
0.987654 -1.77179e-16 0
0.987654 3.75944e-16 0
0.888889 3.30558e-16 0
0.888889 -1.86911e-16 0
0.888889 3.30558e-16 0
0.888889 -1.86911e-16 0
0.691358 4.02106e-17 0
0.691358 2.31538e-16 0
0.691358 -2.3903e-17 0
0.691358 3.52398e-17 0
0.888889 1.23271e-16 0
0.888889 6.11146e-17 0
0.888889 1.23271e-16 0
0.888889 6.11146e-17 0
0.987654 4.61329e-17 0
0.987654 2.41519e-16 0
0.987654 4.61329e-17 0
0.987654 2.41519e-16 0
0.987654 3.75944e-16 0
0.987654 -8.80805e-17 0
0.987654 3.75944e-16 0
0.987654 -8.80805e-17 0
0.888889 -1.86911e-16 0
0.888889 1.18274e-16 0
0.888889 -1.86911e-16 0
0.888889 1.18274e-16 0
0.691358 2.31538e-16 0
0.691358 -4.53985e-17 0
0.691358 3.52398e-17 0
0.691358 3.57217e-17 0
0.888889 6.11146e-17 0
0.888889 3.11104e-16 0
0.888889 6.11146e-17 0
0.888889 3.11104e-16 0
0.987654 2.41519e-16 0
0.987654 -4.29313e-17 0
0.987654 2.41519e-16 0
0.987654 -4.29313e-17 0
0.987654 -8.80805e-17 0
0.987654 2.53821e-17 0
0.987654 -8.80805e-17 0
0.987654 2.53821e-17 0
0.888889 1.18274e-16 0
0.888889 5.06413e-17 0
0.888889 1.18274e-16 0
0.888889 5.06413e-17 0
0.691358 -4.53985e-17 0
0.691358 8.96204e-17 0
0.691358 3.57217e-17 0
0.691358 3.7365e-16 0
0.888889 3.11104e-16 0
0.888889 -3.50619e-17 0
0.888889 3.11104e-16 0
0.888889 -3.50619e-17 0
0.987654 -4.29313e-17 0
0.987654 1.46251e-16 0
0.987654 -4.29313e-17 0
0.987654 1.46251e-16 0
0.987654 2.53821e-17 0
0.987654 -1.28351e-16 0
0.987654 2.53821e-17 0
0.987654 -1.28351e-16 0
0.888889 5.06413e-17 0
0.888889 1.29381e-16 0
0.888889 5.06413e-17 0
0.888889 1.29381e-16 0
0.691358 8.96204e-17 0
0.691358 1.12974e-16 0
0.691358 3.7365e-16 0
0.691358 1.43288e-16 0
0.888889 -3.50619e-17 0
0.888889 2.16017e-16 0
0.888889 -3.50619e-17 0
0.888889 2.16017e-16 0
0.987654 1.46251e-16 0
0.987654 1.28492e-16 0
0.987654 1.46251e-16 0
0.987654 1.28492e-16 0
0.987654 -1.28351e-16 0
0.987654 -3.29126e-17 0
0.987654 -1.28351e-16 0
0.987654 -3.29126e-17 0
0.888889 1.29381e-16 0
0.888889 3.30021e-17 0
0.888889 1.29381e-16 0
0.888889 3.30021e-17 0
0.691358 1.12974e-16 0
0.691358 3.92416e-17 0
0.691358 1.43288e-16 0
0.691358 3.92695e-16 0
0.888889 2.16017e-16 0
0.888889 2.6394e-16 0
0.888889 2.16017e-16 0
0.888889 2.6394e-16 0
0.987654 1.28492e-16 0
0.987654 6.65762e-17 0
0.987654 1.28492e-16 0
0.987654 6.65762e-17 0
0.987654 -3.29126e-17 0
0.987654 1.01039e-16 0
0.987654 -3.29126e-17 0
0.987654 1.01039e-16 0
0.888889 3.30021e-17 0
0.888889 -5.13907e-17 0
0.888889 3.30021e-17 0
0.888889 -5.13907e-17 0
0.691358 3.92416e-17 0
0.691358 -2.50926e-16 0
0.691358 3.92695e-16 0
0.691358 4.28565e-16 0
0.888889 2.6394e-16 0
0.888889 3.36313e-16 0
0.888889 2.6394e-16 0
0.888889 3.36313e-16 0
0.987654 6.65762e-17 0
0.987654 1.86662e-17 0
0.987654 6.65762e-17 0
0.987654 1.86662e-17 0
0.987654 1.01039e-16 0
0.987654 -7.65965e-17 0
0.987654 1.01039e-16 0
0.987654 -7.65965e-17 0
0.888889 -5.13907e-17 0
0.888889 -1.1263e-16 0
0.888889 -5.13907e-17 0
0.888889 -1.1263e-16 0
0.691358 -2.50926e-16 0
0.691358 -1.80023e-17 0
0.691358 4.28565e-16 0
0.691358 2.38227e-16 0
0.888889 3.36313e-16 0
0.888889 7.03926e-18 0
0.888889 3.36313e-16 0
0.888889 7.03926e-18 0
0.987654 1.86662e-17 0
0.987654 1.87058e-17 0
0.987654 1.86662e-17 0
0.987654 1.87058e-17 0
0.987654 -7.65965e-17 0
0.987654 9.8902e-17 0
0.987654 -7.65965e-17 0
0.987654 9.8902e-17 0
0.888889 -1.1263e-16 0
0.888889 -4.15674e-18 0
0.888889 -1.1263e-16 0
0.888889 -4.15674e-18 0
0.691358 -1.80023e-17 0
0.691358 1.10111e-16 0
0.691358 2.38227e-16 0
0.691358 9.6941e-17 0
0.888889 7.03926e-18 0
0.888889 1.97161e-16 0
0.888889 7.03926e-18 0
0.888889 1.97161e-16 0
0.987654 1.87058e-17 0
0.987654 -6.88927e-17 0
0.987654 1.87058e-17 0
0.987654 -6.88927e-17 0
0.987654 9.8902e-17 0
0.987654 1.25682e-17 0
0.987654 9.8902e-17 0
0.987654 1.25682e-17 0
0.888889 -4.15674e-18 0
0.888889 2.22013e-16 0
0.888889 -4.15674e-18 0
0.888889 2.22013e-16 0
0.691358 1.10111e-16 0
0.691358 8.38923e-18 0
0.691358 9.6941e-17 0
0.691358 1.23247e-16 0
0.888889 1.97161e-16 0
0.888889 2.86874e-16 0
0.888889 1.97161e-16 0
0.888889 2.86874e-16 0
0.987654 -6.88927e-17 0
0.987654 2.31097e-16 0
0.987654 -6.88927e-17 0
0.987654 2.31097e-16 0
0.987654 1.25682e-17 0
0.987654 -2.56349e-17 0
0.987654 1.25682e-17 0
0.987654 -2.56349e-17 0
0.888889 2.22013e-16 0
0.888889 -1.38687e-16 0
0.888889 2.22013e-16 0
0.888889 -1.38687e-16 0
0.691358 8.38923e-18 0
0.691358 8.10991e-17 0
0.691358 1.23247e-16 0
0.691358 2.48432e-16 0
0.888889 2.86874e-16 0
0.888889 6.50918e-17 0
0.888889 2.86874e-16 0
0.888889 6.50918e-17 0
0.987654 2.31097e-16 0
0.987654 -1.56736e-16 0
0.987654 2.31097e-16 0
0.987654 -1.56736e-16 0
0.987654 -2.56349e-17 0
0.987654 8.39505e-17 0
0.987654 -2.56349e-17 0
0.987654 8.39505e-17 0
0.888889 -1.38687e-16 0
0.888889 7.23347e-17 0
0.888889 -1.38687e-16 0
0.888889 7.23347e-17 0
0.691358 8.10991e-17 0
0.691358 1.3837e-16 0
0.691358 2.48432e-16 0
0.691358 -9.92487e-17 0
0.888889 6.50918e-17 0
0.888889 3.43318e-16 0
0.888889 6.50918e-17 0
0.888889 3.43318e-16 0
0.987654 -1.56736e-16 0
0.987654 -1.46434e-16 0
0.987654 -1.56736e-16 0
0.987654 -1.46434e-16 0
0.987654 8.39505e-17 0
0.987654 2.02861e-16 0
0.987654 8.39505e-17 0
0.987654 2.02861e-16 0
0.888889 7.23347e-17 0
0.888889 1.60583e-16 0
0.888889 7.23347e-17 0
0.888889 1.60583e-16 0
0.691358 1.3837e-16 0
0.691358 4.09457e-17 0
0.691358 -9.92487e-17 0
0.691358 2.59024e-16 0
0.888889 3.43318e-16 0
0.888889 -7.34035e-17 0
0.888889 3.43318e-16 0
0.888889 -7.34035e-17 0
0.987654 -1.46434e-16 0
0.987654 1.70467e-16 0
0.987654 -1.46434e-16 0
0.987654 1.70467e-16 0
0.987654 2.02861e-16 0
0.987654 1.03863e-16 0
0.987654 2.02861e-16 0
0.987654 1.03863e-16 0
0.888889 1.60583e-16 0
0.888889 -2.14928e-16 0
0.888889 1.60583e-16 0
0.888889 -2.14928e-16 0
0.691358 4.09457e-17 0
0.691358 1.60799e-16 0
0.691358 2.59024e-16 0
0.691358 1.75694e-16 0
0.888889 -7.34035e-17 0
0.888889 7.6759e-17 0
0.888889 -7.34035e-17 0
0.888889 7.6759e-17 0
0.987654 1.70467e-16 0
0.987654 -6.88472e-17 0
0.987654 1.70467e-16 0
0.987654 -6.88472e-17 0
0.987654 1.03863e-16 0
0.987654 8.47344e-18 0
0.987654 1.03863e-16 0
0.987654 8.47344e-18 0
0.888889 -2.14928e-16 0
0.888889 1.12657e-16 0
0.888889 -2.14928e-16 0
0.888889 1.12657e-16 0
0.691358 1.60799e-16 0
0.691358 2.06794e-16 0
0.691358 1.75694e-16 0
0.691358 -1.20493e-17 0
0.888889 7.6759e-17 0
0.888889 2.11617e-17 0
0.888889 7.6759e-17 0
0.888889 2.11617e-17 0
0.987654 -6.88472e-17 0
0.987654 5.41961e-17 0
0.987654 -6.88472e-17 0
0.987654 5.41961e-17 0
0.987654 8.47344e-18 0
0.987654 3.47607e-17 0
0.987654 8.47344e-18 0
0.987654 3.47607e-17 0
0.888889 1.12657e-16 0
0.888889 2.31527e-16 0
0.888889 1.12657e-16 0
0.888889 2.31527e-16 0
0.691358 2.06794e-16 0
0.691358 2.00941e-17 0
0.691358 -1.20493e-17 0
0.691358 -1.52609e-16 0
0.888889 2.11617e-17 0
0.888889 -4.54727e-17 0
0.888889 2.11617e-17 0
0.888889 -4.54727e-17 0
0.987654 5.41961e-17 0
0.987654 8.36316e-17 0
0.987654 5.41961e-17 0
0.987654 8.36316e-17 0
0.987654 3.47607e-17 0
0.987654 2.25296e-16 0
0.987654 3.47607e-17 0
0.987654 2.25296e-16 0
0.888889 2.31527e-16 0
0.888889 4.7596e-17 0
0.888889 2.31527e-16 0
0.888889 4.7596e-17 0
0.691358 2.00941e-17 0
0.691358 2.25241e-16 0
0.691358 -1.52609e-16 0
0.691358 2.03273e-16 0
0.888889 -4.54727e-17 0
0.888889 -1.36671e-16 0
0.888889 -4.54727e-17 0
0.888889 -1.36671e-16 0
0.987654 8.36316e-17 0
0.987654 3.38102e-16 0
0.987654 8.36316e-17 0
0.987654 3.38102e-16 0
0.987654 2.25296e-16 0
0.987654 -1.51506e-16 0
0.987654 2.25296e-16 0
0.987654 -1.51506e-16 0
0.888889 4.7596e-17 0
0.888889 1.3574e-16 0
0.888889 4.7596e-17 0
0.888889 1.3574e-16 0
0.691358 2.25241e-16 0
0.691358 9.14997e-17 0
0.691358 2.03273e-16 0
0.691358 -4.33008e-17 0
0.888889 -1.36671e-16 0
0.888889 2.39174e-16 0
0.888889 -1.36671e-16 0
0.888889 2.39174e-16 0
0.987654 3.38102e-16 0
0.987654 3.0701e-17 0
0.987654 3.38102e-16 0
0.987654 3.0701e-17 0
0.987654 -1.51506e-16 0
0.987654 1.96487e-16 0
0.987654 -1.51506e-16 0
0.987654 1.96487e-16 0
0.888889 1.3574e-16 0
0.888889 5.9839e-17 0
0.888889 1.3574e-16 0
0.888889 5.9839e-17 0
0.691358 9.14997e-17 0
0.691358 7.71689e-18 0
0.691358 -4.33008e-17 0
0.691358 2.88367e-16 0
0.888889 2.39174e-16 0
0.888889 -5.70698e-17 0
0.888889 2.39174e-16 0
0.888889 -5.70698e-17 0
0.987654 3.0701e-17 0
0.987654 2.69326e-17 0
0.987654 3.0701e-17 0
0.987654 2.69326e-17 0
0.987654 1.96487e-16 0
0.987654 5.34007e-17 0
0.987654 1.96487e-16 0
0.987654 5.34007e-17 0
0.888889 5.9839e-17 0
0.888889 1.50994e-16 0
0.888889 5.9839e-17 0
0.888889 1.50994e-16 0
0.691358 7.71689e-18 0
0.691358 5.91186e-17 0
0.691358 2.88367e-16 0
0.691358 1.08424e-17 0
0.888889 -5.70698e-17 0
0.888889 3.05522e-16 0
0.888889 -5.70698e-17 0
0.888889 3.05522e-16 0
0.987654 2.69326e-17 0
0.987654 3.07932e-16 0
0.987654 2.69326e-17 0
0.987654 3.07932e-16 0
0.987654 5.34007e-17 0
0.987654 -1.80493e-16 0
0.987654 5.34007e-17 0
0.987654 -1.80493e-16 0
0.888889 1.50994e-16 0
0.888889 4.15471e-17 0
0.888889 1.50994e-16 0
0.888889 4.15471e-17 0
0.691358 5.91186e-17 0
0.691358 8.09373e-17 0
0.691358 1.08424e-17 0
0.691358 4.04789e-16 0
0.888889 3.05522e-16 0
0.888889 -1.10861e-17 0
0.888889 3.05522e-16 0
0.888889 -1.10861e-17 0
0.987654 3.07932e-16 0
0.987654 -1.21913e-16 0
0.987654 3.07932e-16 0
0.987654 -1.21913e-16 0
0.987654 -1.80493e-16 0
0.987654 1.30599e-17 0
0.987654 -1.80493e-16 0
0.987654 1.30599e-17 0
0.888889 4.15471e-17 0
0.888889 -6.59943e-17 0
0.888889 4.15471e-17 0
0.888889 -6.59943e-17 0
0.691358 8.09373e-17 0
0.691358 9.11996e-17 0
0.691358 4.04789e-16 0
0.691358 1.37567e-16 0
0.888889 -1.10861e-17 0
0.888889 1.72152e-16 0
0.888889 -1.10861e-17 0
0.888889 1.72152e-16 0
0.987654 -1.21913e-16 0
0.987654 1.91929e-16 0
0.987654 -1.21913e-16 0
0.987654 1.91929e-16 0
0.987654 1.30599e-17 0
0.987654 5.95674e-17 0
0.987654 1.30599e-17 0
0.987654 5.95674e-17 0
0.888889 -6.59943e-17 0
0.888889 9.25377e-17 0
0.888889 -6.59943e-17 0
0.888889 9.25377e-17 0
0.691358 9.11996e-17 0
0.691358 -3.41772e-18 0
0.691358 1.37567e-16 0
0.691358 -1.27044e-18 0
0.888889 1.72152e-16 0
0.888889 6.12721e-17 0
0.888889 1.72152e-16 0
0.888889 6.12721e-17 0
0.987654 1.91929e-16 0
0.987654 -7.72748e-17 0
0.987654 1.91929e-16 0
0.987654 -7.72748e-17 0
0.987654 5.95674e-17 0
0.987654 4.81338e-16 0
0.987654 5.95674e-17 0
0.987654 4.81338e-16 0
0.888889 9.25377e-17 0
0.888889 -5.94429e-17 0
0.888889 9.25377e-17 0
0.888889 -5.94429e-17 0
0.691358 -3.41772e-18 0
0.691358 -1.59592e-16 0
0.691358 -1.27044e-18 0
0.691358 -1.06289e-17 0
0.888889 6.12721e-17 0
0.888889 1.51227e-16 0
0.888889 6.12721e-17 0
0.888889 1.51227e-16 0
0.987654 -7.72748e-17 0
0.987654 7.13494e-17 0
0.987654 -7.72748e-17 0
0.987654 7.13494e-17 0
0.987654 4.81338e-16 0
0.987654 1.21074e-16 0
0.987654 4.81338e-16 0
0.987654 1.21074e-16 0
0.888889 -5.94429e-17 0
0.888889 1.60685e-16 0
0.888889 -5.94429e-17 0
0.888889 1.60685e-16 0
0.691358 -1.59592e-16 0
0.691358 -5.24224e-19 0
0.691358 -1.06289e-17 0
0.691358 2.85035e-17 0
0.888889 1.51227e-16 0
0.888889 5.33297e-17 0
0.888889 1.51227e-16 0
0.888889 5.33297e-17 0
0.987654 7.13494e-17 0
0.987654 2.527e-16 0
0.987654 7.13494e-17 0
0.987654 2.527e-16 0
0.987654 1.21074e-16 0
0.987654 1.05278e-16 0
0.987654 1.21074e-16 0
0.987654 1.05278e-16 0
0.888889 1.60685e-16 0
0.888889 1.99517e-16 0
0.888889 1.60685e-16 0
0.888889 1.99517e-16 0
0.691358 -5.24224e-19 0
0.691358 -8.56187e-17 0
0.691358 2.85035e-17 0
0.691358 1.13668e-16 0
0.888889 5.33297e-17 0
0.888889 1.40277e-16 0
0.888889 5.33297e-17 0
0.888889 1.40277e-16 0
0.987654 2.527e-16 0
0.987654 -9.8326e-17 0
0.987654 2.527e-16 0
0.987654 -9.8326e-17 0