# vtk DataFile Version 3.0
#This file was generated by the deal.II library on 2026/3/19 at 14:46:53
ASCII
DATASET UNSTRUCTURED_GRID

POINTS 8416 double
0 0.125 0
0.03125 0.125 0
0 0.15625 0
0.03125 0.15625 0
0.03125 0.125 0
0.0625 0.125 0
0.03125 0.15625 0
0.0625 0.15625 0
0 0.15625 0
0.03125 0.15625 0
0 0.1875 0
0.03125 0.1875 0
0.03125 0.15625 0
0.0625 0.15625 0
0.03125 0.1875 0
0.0625 0.1875 0
0 0.1875 0
0.03125 0.1875 0
0 0.21875 0
0.03125 0.21875 0
0.03125 0.1875 0
0.0625 0.1875 0
0.03125 0.21875 0
0.0625 0.21875 0
0 0.21875 0
0.03125 0.21875 0
0 0.25 0
0.03125 0.25 0
0.03125 0.21875 0
0.0625 0.21875 0
0.03125 0.25 0
0.0625 0.25 0
0.0625 0.1875 0
0.09375 0.1875 0
0.0625 0.21875 0
0.09375 0.21875 0
0.09375 0.1875 0
0.125 0.1875 0
0.09375 0.21875 0
0.125 0.21875 0
0.0625 0.21875 0
0.09375 0.21875 0
0.0625 0.25 0
0.09375 0.25 0
0.09375 0.21875 0
0.125 0.21875 0
0.09375 0.25 0
0.125 0.25 0
0.125 0.1875 0
0.15625 0.1875 0
0.125 0.21875 0
0.15625 0.21875 0
0.15625 0.1875 0
0.1875 0.1875 0
0.15625 0.21875 0
0.1875 0.21875 0
0.125 0.21875 0
0.15625 0.21875 0
0.125 0.25 0
0.15625 0.25 0
0.15625 0.21875 0
0.1875 0.21875 0
0.15625 0.25 0
0.1875 0.25 0
0.1875 0.1875 0
0.21875 0.1875 0
0.1875 0.21875 0
0.21875 0.21875 0
0.21875 0.1875 0
0.25 0.1875 0
0.21875 0.21875 0
0.25 0.21875 0
0.1875 0.21875 0
0.21875 0.21875 0
0.1875 0.25 0
0.21875 0.25 0
0.21875 0.21875 0
0.25 0.21875 0
0.21875 0.25 0
0.25 0.25 0
0.25 0.1875 0
0.28125 0.1875 0
0.25 0.21875 0
0.28125 0.21875 0
0.28125 0.1875 0
0.3125 0.1875 0
0.28125 0.21875 0
0.3125 0.21875 0
0.25 0.21875 0
0.28125 0.21875 0
0.25 0.25 0
0.28125 0.25 0
0.28125 0.21875 0
0.3125 0.21875 0
0.28125 0.25 0
0.3125 0.25 0
0.3125 0.1875 0
0.34375 0.1875 0
0.3125 0.21875 0
0.34375 0.21875 0
0.34375 0.1875 0
0.375 0.1875 0
0.34375 0.21875 0
0.375 0.21875 0
0.3125 0.21875 0
0.34375 0.21875 0
0.3125 0.25 0
0.34375 0.25 0
0.34375 0.21875 0
0.375 0.21875 0
0.34375 0.25 0
0.375 0.25 0
0.375 0.1875 0
0.40625 0.1875 0
0.375 0.21875 0
0.40625 0.21875 0
0.40625 0.1875 0
0.4375 0.1875 0
0.40625 0.21875 0
0.4375 0.21875 0
0.375 0.21875 0
0.40625 0.21875 0
0.375 0.25 0
0.40625 0.25 0
0.40625 0.21875 0
0.4375 0.21875 0
0.40625 0.25 0
0.4375 0.25 0
0.4375 0.1875 0
0.46875 0.1875 0
0.4375 0.21875 0
0.46875 0.21875 0
0.46875 0.1875 0
0.5 0.1875 0
0.46875 0.21875 0
0.5 0.21875 0
0.4375 0.21875 0
0.46875 0.21875 0
0.4375 0.25 0
0.46875 0.25 0
0.46875 0.21875 0
0.5 0.21875 0
0.46875 0.25 0
0.5 0.25 0
0 0.25 0
0.03125 0.25 0
0 0.28125 0
0.03125 0.28125 0
0.03125 0.25 0
0.0625 0.25 0
0.03125 0.28125 0
0.0625 0.28125 0
0 0.28125 0
0.03125 0.28125 0
0 0.3125 0
0.03125 0.3125 0
0.03125 0.28125 0
0.0625 0.28125 0
0.03125 0.3125 0
0.0625 0.3125 0
0.0625 0.25 0
0.09375 0.25 0
0.0625 0.28125 0
0.09375 0.28125 0
0.09375 0.25 0
0.125 0.25 0
0.09375 0.28125 0
0.125 0.28125 0
0.0625 0.28125 0
0.09375 0.28125 0
0.0625 0.3125 0
0.09375 0.3125 0
0.09375 0.28125 0
0.125 0.28125 0
0.09375 0.3125 0
0.125 0.3125 0
0 0.3125 0
0.03125 0.3125 0
0 0.34375 0
0.03125 0.34375 0
0.03125 0.3125 0
0.0625 0.3125 0
0.03125 0.34375 0
0.0625 0.34375 0
0 0.34375 0
0.03125 0.34375 0
0 0.375 0
0.03125 0.375 0
0.03125 0.34375 0
0.0625 0.34375 0
0.03125 0.375 0
0.0625 0.375 0
0.0625 0.3125 0
0.09375 0.3125 0
0.0625 0.34375 0
0.09375 0.34375 0
0.09375 0.3125 0
0.125 0.3125 0
0.09375 0.34375 0
0.125 0.34375 0
0.0625 0.34375 0
0.09375 0.34375 0
0.0625 0.375 0
0.09375 0.375 0
0.09375 0.34375 0
0.125 0.34375 0
0.09375 0.375 0
0.125 0.375 0
0.125 0.25 0
0.15625 0.25 0
0.125 0.28125 0
0.15625 0.28125 0
0.15625 0.25 0
0.1875 0.25 0
0.15625 0.28125 0
0.1875 0.28125 0
0.125 0.28125 0
0.15625 0.28125 0
0.125 0.3125 0
0.15625 0.3125 0
0.15625 0.28125 0
0.1875 0.28125 0
0.15625 0.3125 0
0.1875 0.3125 0
0.1875 0.25 0
0.21875 0.25 0
0.1875 0.28125 0
0.21875 0.28125 0
0.21875 0.25 0
0.25 0.25 0
0.21875 0.28125 0
0.25 0.28125 0
0.1875 0.28125 0
0.21875 0.28125 0
0.1875 0.3125 0
0.21875 0.3125 0
0.21875 0.28125 0
0.25 0.28125 0
0.21875 0.3125 0
0.25 0.3125 0
0.125 0.3125 0
0.15625 0.3125 0
0.125 0.34375 0
0.15625 0.34375 0
0.15625 0.3125 0
0.1875 0.3125 0
0.15625 0.34375 0
0.1875 0.34375 0
0.125 0.34375 0
0.15625 0.34375 0
0.125 0.375 0
0.15625 0.375 0
0.15625 0.34375 0
0.1875 0.34375 0
0.15625 0.375 0
0.1875 0.375 0
0.1875 0.3125 0
0.21875 0.3125 0
0.1875 0.34375 0
0.21875 0.34375 0
0.21875 0.3125 0
0.25 0.3125 0
0.21875 0.34375 0
0.25 0.34375 0
0.1875 0.34375 0
0.21875 0.34375 0
0.1875 0.375 0
0.21875 0.375 0
0.21875 0.34375 0
0.25 0.34375 0
0.21875 0.375 0
0.25 0.375 0
0 0.375 0
0.03125 0.375 0
0 0.40625 0
0.03125 0.40625 0
0.03125 0.375 0
0.0625 0.375 0
0.03125 0.40625 0
0.0625 0.40625 0
0 0.40625 0
0.03125 0.40625 0
0 0.4375 0
0.03125 0.4375 0
0.03125 0.40625 0
0.0625 0.40625 0
0.03125 0.4375 0
0.0625 0.4375 0
0.0625 0.375 0
0.09375 0.375 0
0.0625 0.40625 0
0.09375 0.40625 0
0.09375 0.375 0
0.125 0.375 0
0.09375 0.40625 0
0.125 0.40625 0
0.0625 0.40625 0
0.09375 0.40625 0
0.0625 0.4375 0
0.09375 0.4375 0
0.09375 0.40625 0
0.125 0.40625 0
0.09375 0.4375 0
0.125 0.4375 0
0 0.4375 0
0.03125 0.4375 0
0 0.46875 0
0.03125 0.46875 0
0.03125 0.4375 0
0.0625 0.4375 0
0.03125 0.46875 0
0.0625 0.46875 0
0 0.46875 0
0.03125 0.46875 0
0 0.5 0
0.03125 0.5 0
0.03125 0.46875 0
0.0625 0.46875 0
0.03125 0.5 0
0.0625 0.5 0
0.0625 0.4375 0
0.09375 0.4375 0
0.0625 0.46875 0
0.09375 0.46875 0
0.09375 0.4375 0
0.125 0.4375 0
0.09375 0.46875 0
0.125 0.46875 0
0.0625 0.46875 0
0.09375 0.46875 0
0.0625 0.5 0
0.09375 0.5 0
0.09375 0.46875 0
0.125 0.46875 0
0.09375 0.5 0
0.125 0.5 0
0.125 0.375 0
0.15625 0.375 0
0.125 0.40625 0
0.15625 0.40625 0
0.15625 0.375 0
0.1875 0.375 0
0.15625 0.40625 0
0.1875 0.40625 0
0.125 0.40625 0
0.15625 0.40625 0
0.125 0.4375 0
0.15625 0.4375 0
0.15625 0.40625 0
0.1875 0.40625 0
0.15625 0.4375 0
0.1875 0.4375 0
0.1875 0.375 0
0.21875 0.375 0
0.1875 0.40625 0
0.21875 0.40625 0
0.21875 0.375 0
0.25 0.375 0
0.21875 0.40625 0
0.25 0.40625 0
0.1875 0.40625 0
0.21875 0.40625 0
0.1875 0.4375 0
0.21875 0.4375 0
0.21875 0.40625 0
0.25 0.40625 0
0.21875 0.4375 0
0.25 0.4375 0
0.125 0.4375 0
0.15625 0.4375 0
0.125 0.46875 0
0.15625 0.46875 0
0.15625 0.4375 0
0.1875 0.4375 0
0.15625 0.46875 0
0.1875 0.46875 0
0.125 0.46875 0
0.15625 0.46875 0
0.125 0.5 0
0.15625 0.5 0
0.15625 0.46875 0
0.1875 0.46875 0
0.15625 0.5 0
0.1875 0.5 0
0.1875 0.4375 0
0.21875 0.4375 0
0.1875 0.46875 0
0.21875 0.46875 0
0.21875 0.4375 0
0.25 0.4375 0
0.21875 0.46875 0
0.25 0.46875 0
0.1875 0.46875 0
0.21875 0.46875 0
0.1875 0.5 0
0.21875 0.5 0
0.21875 0.46875 0
0.25 0.46875 0
0.21875 0.5 0
0.25 0.5 0
0.25 0.25 0
0.28125 0.25 0
0.25 0.28125 0
0.28125 0.28125 0
0.28125 0.25 0
0.3125 0.25 0
0.28125 0.28125 0
0.3125 0.28125 0
0.25 0.28125 0
0.28125 0.28125 0
0.25 0.3125 0
0.28125 0.3125 0
0.28125 0.28125 0
0.3125 0.28125 0
0.28125 0.3125 0
0.3125 0.3125 0
0.3125 0.25 0
0.34375 0.25 0
0.3125 0.28125 0
0.34375 0.28125 0
0.34375 0.25 0
0.375 0.25 0
0.34375 0.28125 0
0.375 0.28125 0
0.3125 0.28125 0
0.34375 0.28125 0
0.3125 0.3125 0
0.34375 0.3125 0
0.34375 0.28125 0
0.375 0.28125 0
0.34375 0.3125 0
0.375 0.3125 0
0.25 0.3125 0
0.28125 0.3125 0
0.25 0.34375 0
0.28125 0.34375 0
0.28125 0.3125 0
0.3125 0.3125 0
0.28125 0.34375 0
0.3125 0.34375 0
0.25 0.34375 0
0.28125 0.34375 0
0.25 0.375 0
0.28125 0.375 0
0.28125 0.34375 0
0.3125 0.34375 0
0.28125 0.375 0
0.3125 0.375 0
0.3125 0.3125 0
0.34375 0.3125 0
0.3125 0.34375 0
0.34375 0.34375 0
0.34375 0.3125 0
0.375 0.3125 0
0.34375 0.34375 0
0.375 0.34375 0
0.3125 0.34375 0
0.34375 0.34375 0
0.3125 0.375 0
0.34375 0.375 0
0.34375 0.34375 0
0.375 0.34375 0
0.34375 0.375 0
0.375 0.375 0
0.375 0.25 0
0.40625 0.25 0
0.375 0.28125 0
0.40625 0.28125 0
0.40625 0.25 0
0.4375 0.25 0
0.40625 0.28125 0
0.4375 0.28125 0
0.375 0.28125 0
0.40625 0.28125 0
0.375 0.3125 0
0.40625 0.3125 0
0.40625 0.28125 0
0.4375 0.28125 0
0.40625 0.3125 0
0.4375 0.3125 0
0.4375 0.25 0
0.46875 0.25 0
0.4375 0.28125 0
0.46875 0.28125 0
0.46875 0.25 0
0.5 0.25 0
0.46875 0.28125 0
0.5 0.28125 0
0.4375 0.28125 0
0.46875 0.28125 0
0.4375 0.3125 0
0.46875 0.3125 0
0.46875 0.28125 0
0.5 0.28125 0
0.46875 0.3125 0
0.5 0.3125 0
0.375 0.3125 0
0.40625 0.3125 0
0.375 0.34375 0
0.40625 0.34375 0
0.40625 0.3125 0
0.4375 0.3125 0
0.40625 0.34375 0
0.4375 0.34375 0
0.375 0.34375 0
0.40625 0.34375 0
0.375 0.375 0
0.40625 0.375 0
0.40625 0.34375 0
0.4375 0.34375 0
0.40625 0.375 0
0.4375 0.375 0
0.4375 0.3125 0
0.46875 0.3125 0
0.4375 0.34375 0
0.46875 0.34375 0
0.46875 0.3125 0
0.5 0.3125 0
0.46875 0.34375 0
0.5 0.34375 0
0.4375 0.34375 0
0.46875 0.34375 0
0.4375 0.375 0
0.46875 0.375 0
0.46875 0.34375 0
0.5 0.34375 0
0.46875 0.375 0
0.5 0.375 0
0.25 0.375 0
0.28125 0.375 0
0.25 0.40625 0
0.28125 0.40625 0
0.28125 0.375 0
0.3125 0.375 0
0.28125 0.40625 0
0.3125 0.40625 0
0.25 0.40625 0
0.28125 0.40625 0
0.25 0.4375 0
0.28125 0.4375 0
0.28125 0.40625 0
0.3125 0.40625 0
0.28125 0.4375 0
0.3125 0.4375 0
0.3125 0.375 0
0.34375 0.375 0
0.3125 0.40625 0
0.34375 0.40625 0
0.34375 0.375 0
0.375 0.375 0
0.34375 0.40625 0
0.375 0.40625 0
0.3125 0.40625 0
0.34375 0.40625 0
0.3125 0.4375 0
0.34375 0.4375 0
0.34375 0.40625 0
0.375 0.40625 0
0.34375 0.4375 0
0.375 0.4375 0
0.25 0.4375 0
0.28125 0.4375 0
0.25 0.46875 0
0.28125 0.46875 0
0.28125 0.4375 0
0.3125 0.4375 0
0.28125 0.46875 0
0.3125 0.46875 0
0.25 0.46875 0
0.28125 0.46875 0
0.25 0.5 0
0.28125 0.5 0
0.28125 0.46875 0
0.3125 0.46875 0
0.28125 0.5 0
0.3125 0.5 0
0.3125 0.4375 0
0.34375 0.4375 0
0.3125 0.46875 0
0.34375 0.46875 0
0.34375 0.4375 0
0.375 0.4375 0
0.34375 0.46875 0
0.375 0.46875 0
0.3125 0.46875 0
0.34375 0.46875 0
0.3125 0.5 0
0.34375 0.5 0
0.34375 0.46875 0
0.375 0.46875 0
0.34375 0.5 0
0.375 0.5 0
0.375 0.375 0
0.40625 0.375 0
0.375 0.40625 0
0.40625 0.40625 0
0.40625 0.375 0
0.4375 0.375 0
0.40625 0.40625 0
0.4375 0.40625 0
0.375 0.40625 0
0.40625 0.40625 0
0.375 0.4375 0
0.40625 0.4375 0
0.40625 0.40625 0
0.4375 0.40625 0
0.40625 0.4375 0
0.4375 0.4375 0
0.4375 0.375 0
0.46875 0.375 0
0.4375 0.40625 0
0.46875 0.40625 0
0.46875 0.375 0
[...]
POINT_DATA 8416
VECTORS velocity double
4 0 0
4.00059 0.00670994 0
4 0 0
4.00029 0.00508626 0
4.00059 0.00670994 0
4.00282 0.0126559 0
4.00029 0.00508626 0
4.0017 0.00974873 0
4 0 0
4.00029 0.00508626 0
4 0 0
4.00011 0.0039846 0
4.00029 0.00508626 0
4.0017 0.00974873 0
4.00011 0.0039846 0
4.00105 0.00771736 0
4 0 0
4.00011 0.0039846 0
4 0 0
3.99998 0.00318807 0
4.00011 0.0039846 0
4.00105 0.00771736 0
3.99998 0.00318807 0
4.00061 0.00619739 0
4 0 0
3.99998 0.00318807 0
4 0 0
3.99988 0.00257366 0
3.99998 0.00318807 0
4.00061 0.00619739 0
3.99988 0.00257366 0
4.0003 0.00501499 0
4.00105 0.00771736 0
4.00268 0.0109703 0
4.00061 0.00619739 0
4.0018 0.0088845 0
4.00268 0.0109703 0
4.00481 0.0136413 0
4.0018 0.0088845 0
4.00343 0.0111758 0
4.00061 0.00619739 0
4.0018 0.0088845 0
4.0003 0.00501499 0
4.00119 0.00723495 0
4.0018 0.0088845 0
4.00343 0.0111758 0
4.00119 0.00723495 0
4.00246 0.00917373 0
4.00481 0.0136413 0
4.00725 0.0157225 0
4.00343 0.0111758 0
4.00537 0.0130414 0
4.00725 0.0157225 0
4.00984 0.0172655 0
4.00537 0.0130414 0
4.00751 0.014495 0
4.00343 0.0111758 0
4.00537 0.0130414 0
4.00246 0.00917373 0
4.00404 0.0108012 0
4.00537 0.0130414 0
4.00751 0.014495 0
4.00404 0.0108012 0
4.00583 0.0121149 0
4.00984 0.0172655 0
4.01247 0.0183504 0
4.00751 0.014495 0
4.00976 0.0155769 0
4.01247 0.0183504 0
4.01508 0.0190624 0
4.00976 0.0155769 0
4.01206 0.0163401 0
4.00751 0.014495 0
4.00976 0.0155769 0
4.00583 0.0121149 0
4.00777 0.0131336 0
4.00976 0.0155769 0
4.01206 0.0163401 0
4.00777 0.0131336 0
4.00979 0.0138884 0
4.01508 0.0190624 0
4.01762 0.0194793 0
4.01206 0.0163401 0
4.01434 0.016839 0
4.01762 0.0194793 0
4.02008 0.0196673 0
4.01434 0.016839 0
4.0166 0.0171244 0
4.01206 0.0163401 0
4.01434 0.016839 0
4.00979 0.0138884 0
4.01185 0.0144158 0
4.01434 0.016839 0
4.0166 0.0171244 0
4.01185 0.0144158 0
4.01392 0.0147528 0
4.02008 0.0196673 0
4.02244 0.0196804 0
4.0166 0.0171244 0
4.0188 0.0172404 0
4.02244 0.0196804 0
4.0247 0.0195619 0
4.0188 0.0172404 0
4.02095 0.0172245 0
4.0166 0.0171244 0
4.0188 0.0172404 0
4.01392 0.0147528 0
4.01597 0.014934 0
4.0188 0.0172404 0
4.02095 0.0172245 0
4.01597 0.014934 0
4.018 0.0149899 0
4.0247 0.0195619 0
4.02688 0.0193455 0
4.02095 0.0172245 0
4.02303 0.0171071 0
4.02688 0.0193455 0
4.02896 0.0190578 0
4.02303 0.0171071 0
4.02505 0.0169132 0
4.02095 0.0172245 0
4.02303 0.0171071 0
4.018 0.0149899 0
4.02 0.0149471 0
4.02303 0.0171071 0
4.02505 0.0169132 0
4.02 0.0149471 0
4.02195 0.0148274 0
4.02896 0.0190578 0
4.03097 0.0187192 0
4.02505 0.0169132 0
4.02701 0.0166623 0
4.03097 0.0187192 0
4.03291 0.0183453 0
4.02701 0.0166623 0
4.02891 0.0163705 0
4.02505 0.0169132 0
4.02701 0.0166623 0
4.02195 0.0148274 0
4.02385 0.0146491 0
4.02701 0.0166623 0
4.02891 0.0163705 0
4.02385 0.0146491 0
4.02572 0.014427 0
4 0 0
3.99988 0.00257366 0
4 0 0
3.99981 0.00208036 0
3.99988 0.00257366 0
4.0003 0.00501499 0
3.99981 0.00208036 0
4.00008 0.00406396 0
4 0 0
3.99981 0.00208036 0
4 0 0
3.99976 0.00167188 0
3.99981 0.00208036 0
4.00008 0.00406396 0
3.99976 0.00167188 0
3.99991 0.00327215 0
4.0003 0.00501499 0
4.00119 0.00723495 0
4.00008 0.00406396 0
4.00075 0.0058882 0
4.00119 0.00723495 0
4.00246 0.00917373 0
4.00075 0.0058882 0
4.00177 0.00750832 0
4.00008 0.00406396 0
4.00075 0.0058882 0
3.99991 0.00327215 0
4.00043 0.00475589 0
4.00075 0.0058882 0
4.00177 0.00750832 0
4.00043 0.00475589 0
4.00126 0.00608923 0
4 0 0
3.99976 0.00167188 0
4 0 0
3.99972 0.00132296 0
3.99976 0.00167188 0
3.99991 0.00327215 0
3.99972 0.00132296 0
3.99979 0.0025931 0
4 0 0
3.99972 0.00132296 0
4 0 0
3.99969 0.00101633 0
3.99972 0.00132296 0
3.99979 0.0025931 0
3.99969 0.00101633 0
3.9997 0.00199422 0
3.99991 0.00327215 0
4.00043 0.00475589 0
3.99979 0.0025931 0
4.00019 0.00377752 0
4.00043 0.00475589 0
4.00126 0.00608923 0
4.00019 0.00377752 0
4.00088 0.00485091 0
3.99979 0.0025931 0
4.00019 0.00377752 0
3.9997 0.00199422 0
4.00001 0.00290988 0
4.00019 0.00377752 0
4.00088 0.00485091 0
4.00001 0.00290988 0
4.0006 0.00374475 0
4.00246 0.00917373 0
4.00404 0.0108012 0
4.00177 0.00750832 0
4.00307 0.00889793 0
4.00404 0.0108012 0
4.00583 0.0121149 0
4.00307 0.00889793 0
4.00459 0.010049 0
4.00177 0.00750832 0
4.00307 0.00889793 0
4.00126 0.00608923 0
4.00235 0.00725065 0
4.00307 0.00889793 0
4.00459 0.010049 0
4.00235 0.00725065 0
4.00366 0.00823095 0
4.00583 0.0121149 0
4.00777 0.0131336 0
4.00459 0.010049 0
4.00627 0.0109686 0
4.00777 0.0131336 0
4.00979 0.0138884 0
4.00627 0.0109686 0
4.00807 0.0116745 0
4.00459 0.010049 0
4.00627 0.0109686 0
4.00366 0.00823095 0
4.00515 0.00903163 0
4.00627 0.0109686 0
4.00807 0.0116745 0
4.00515 0.00903163 0
4.00676 0.00966245 0
4.00126 0.00608923 0
4.00235 0.00725065 0
4.00088 0.00485091 0
4.00182 0.00579639 0
4.00235 0.00725065 0
4.00366 0.00823095 0
4.00182 0.00579639 0
4.00297 0.00660546 0
4.00088 0.00485091 0
4.00182 0.00579639 0
4.0006 0.00374475 0
4.00142 0.00448606 0
4.00182 0.00579639 0
4.00297 0.00660546 0
4.00142 0.00448606 0
4.00246 0.00512676 0
4.00366 0.00823095 0
4.00515 0.00903163 0
4.00297 0.00660546 0
4.0043 0.00727716 0
4.00515 0.00903163 0
4.00676 0.00966245 0
4.0043 0.00727716 0
4.00577 0.00781666 0
4.00297 0.00660546 0
4.0043 0.00727716 0
4.00246 0.00512676 0
4.00367 0.00566506 0
4.0043 0.00727716 0
4.00577 0.00781666 0
4.00367 0.00566506 0
4.00502 0.00610357 0
4 0 0
3.99969 0.00101633 0
4 0 0
3.99967 0.000739375 0
3.99969 0.00101633 0
3.9997 0.00199422 0
3.99967 0.000739375 0
3.99964 0.00145188 0
4 0 0
3.99967 0.000739375 0
4 0 0
3.99965 0.000482565 0
3.99967 0.000739375 0
3.99964 0.00145188 0
3.99965 0.000482565 0
3.99959 0.000948071 0
3.9997 0.00199422 0
4.00001 0.00290988 0
3.99964 0.00145188 0
3.99989 0.00212098 0
4.00001 0.00290988 0
4.0006 0.00374475 0
3.99989 0.00212098 0
4.0004 0.00273366 0
3.99964 0.00145188 0
3.99989 0.00212098 0
3.99959 0.000948071 0
3.9998 0.00138606 0
3.99989 0.00212098 0
4.0004 0.00273366 0
3.9998 0.00138606 0
4.00026 0.00178825 0
4 0 0
3.99965 0.000482565 0
4 0 0
3.99965 0.000238279 0
3.99965 0.000482565 0
3.99959 0.000948071 0
3.99965 0.000238279 0
3.99957 0.000468268 0
4 0 0
3.99965 0.000238279 0
4 0 0
3.99964 -4.79934e-10 0
3.99965 0.000238279 0
3.99957 0.000468268 0
3.99964 -4.79934e-10 0
3.99956 -9.31257e-10 0
3.99959 0.000948071 0
3.9998 0.00138606 0
3.99957 0.000468268 0
3.99975 0.000684903 0
3.9998 0.00138606 0
4.00026 0.00178825 0
3.99975 0.000684903 0
4.00018 0.000884153 0
3.99957 0.000468268 0
3.99975 0.000684903 0
3.99956 -9.31257e-10 0
3.99974 -1.34289e-09 0
3.99975 0.000684903 0
4.00018 0.000884153 0
3.99974 -1.34289e-09 0
4.00016 -1.70574e-09 0
4.0006 0.00374475 0
4.00142 0.00448606 0
4.0004 0.00273366 0
4.00114 0.00328075 0
4.00142 0.00448606 0
4.00246 0.00512676 0
4.00114 0.00328075 0
4.00209 0.00375694 0
4.0004 0.00273366 0
4.00114 0.00328075 0
4.00026 0.00178825 0
4.00095 0.00214874 0
4.00114 0.00328075 0
4.00209 0.00375694 0
4.00095 0.00214874 0
4.00184 0.00246397 0
4.00246 0.00512676 0
4.00367 0.00566506 0
4.00209 0.00375694 0
4.00321 0.00416042 0
4.00367 0.00566506 0
4.00502 0.00610357 0
4.00321 0.00416042 0
4.00448 0.00449243 0
4.00209 0.00375694 0
4.00321 0.00416042 0
4.00184 0.00246397 0
4.0029 0.00273259 0
4.00321 0.00416042 0
4.00448 0.00449243 0
4.0029 0.00273259 0
4.00412 0.00295513 0
4.00026 0.00178825 0
4.00095 0.00214874 0
4.00018 0.000884153 0
4.00084 0.00106312 0
4.00095 0.00214874 0
4.00184 0.00246397 0
4.00084 0.00106312 0
4.00169 0.00122005 0
4.00018 0.000884153 0
4.00084 0.00106312 0
4.00016 -1.70574e-09 0
4.0008 -2.01398e-09 0
4.00084 0.00106312 0
4.00169 0.00122005 0
4.0008 -2.01398e-09 0
4.00165 -2.26571e-09 0
4.00184 0.00246397 0
4.0029 0.00273259 0
4.00169 0.00122005 0
4.00272 0.0013542 0
4.0029 0.00273259 0
4.00412 0.00295513 0
4.00272 0.0013542 0
4.0039 0.00146577 0
4.00169 0.00122005 0
4.00272 0.0013542 0
4.00165 -2.26571e-09 0
4.00267 -2.46238e-09 0
4.00272 0.0013542 0
4.0039 0.00146577 0
4.00267 -2.46238e-09 0
4.00383 -2.60789e-09 0
4.00979 0.0138884 0
4.01185 0.0144158 0
4.00807 0.0116745 0
4.00994 0.0121904 0
4.01185 0.0144158 0
4.01392 0.0147528 0
4.00994 0.0121904 0
4.01184 0.0125426 0
4.00807 0.0116745 0
4.00994 0.0121904 0
4.00676 0.00966245 0
4.00846 0.0101386 0
4.00994 0.0121904 0
4.01184 0.0125426 0
4.00846 0.0101386 0
4.01023 0.0104782 0
4.01392 0.0147528 0
4.01597 0.014934 0
4.01184 0.0125426 0
4.01376 0.0127571 0
4.01597 0.014934 0
4.018 0.0149899 0
4.01376 0.0127571 0
4.01568 0.0128581 0
4.01184 0.0125426 0
4.01376 0.0127571 0
4.01023 0.0104782 0
4.01203 0.0107003 0
4.01376 0.0127571 0
4.01568 0.0128581 0
4.01203 0.0107003 0
4.01386 0.0108236 0
4.00676 0.00966245 0
4.00846 0.0101386 0
4.00577 0.00781666 0
4.00734 0.00823353 0
4.00846 0.0101386 0
4.01023 0.0104782 0
4.00734 0.00823353 0
4.00899 0.00854013 0
4.00577 0.00781666 0
4.00734 0.00823353 0
4.00502 0.00610357 0
4.00649 0.00644825 0
4.00734 0.00823353 0
4.00899 0.00854013 0
4.00649 0.00644825 0
4.00805 0.00670734 0
4.01023 0.0104782 0
4.01203 0.0107003 0
4.00899 0.00854013 0
4.01069 0.00875011 0
4.01203 0.0107003 0
4.01386 0.0108236 0
4.01069 0.00875011 0
4.01243 0.00887738 0
4.00899 0.00854013 0
4.01069 0.00875011 0
4.00805 0.00670734 0
4.00967 0.0068904 0
4.01069 0.00875011 0
4.01243 0.00887738 0
4.00967 0.0068904 0
4.01134 0.00700746 0
4.018 0.0149899 0
4.02 0.0149471 0
4.01568 0.0128581 0
4.01759 0.0128672 0
4.02 0.0149471 0
4.02195 0.0148274 0
4.01759 0.0128672 0
4.01947 0.0128035 0
4.01568 0.0128581 0
4.01759 0.0128672 0
4.01386 0.0108236 0
4.01568 0.0108653 0
4.01759 0.0128672 0
4.01947 0.0128035 0
4.01568 0.0108653 0
4.0175 0.0108409 0
4.02195 0.0148274 0
4.02385 0.0146491 0
4.01947 0.0128035 0
4.02133 0.0126828 0
4.02385 0.0146491 0
4.02572 0.014427 0
4.02133 0.0126828 0
4.02315 0.0125187 0
4.01947 0.0128035 0
4.02133 0.0126828 0
4.0175 0.0108409 0
4.01931 0.0107641 0
4.02133 0.0126828 0
4.02315 0.0125187 0
4.01931 0.0107641 0
4.02109 0.0106463 0
4.01386 0.0108236 0
4.01568 0.0108653 0
4.01243 0.00887738 0
4.01419 0.00893527 0
4.01568 0.0108653 0
4.0175 0.0108409 0
4.01419 0.00893527 0
4.01595 0.00893608 0
4.01243 0.00887738 0
4.01419 0.00893527 0
4.01134 0.00700746 0
4.01304 0.00706843 0
4.01419 0.00893527 0
4.01595 0.00893608 0
4.01304 0.00706843 0
4.01476 0.00708268 0
4.0175 0.0108409 0
4.01931 0.0107641 0
4.01595 0.00893608 0
4.01771 0.00889083 0
4.01931 0.0107641 0
4.02109 0.0106463 0
4.01771 0.00889083 0
4.01946 0.00880919 0
4.01595 0.00893608 0
4.01771 0.00889083 0
4.01476 0.00708268 0
4.01648 0.00705878 0
4.01771 0.00889083 0
4.01946 0.00880919 0
4.01648 0.00705878 0
4.0182 0.00700436 0
4.00502 0.00610357 0
4.00649 0.00644825 0
4.00448 0.00449243 0
4.00587 0.00475658 0
4.00649 0.00644825 0
4.00805 0.00670734 0
4.00587 0.00475658 0
4.00736 0.00495821 0
4.00448 0.00449243 0
4.00587 0.00475658 0
4.00412 0.00295513 0
4.00545 0.00313363 0
4.00587 0.00475658 0
4.00736 0.00495821 0
4.00545 0.00313363 0
4.00689 0.00327126 0
4.00805 0.00670734 0
4.00967 0.0068904 0
4.00736 0.00495821 0
4.00892 0.00510371 0
4.00967 0.0068904 0
4.01134 0.00700746 0
4.00892 0.00510371 0
4.01054 0.00519999 0
4.00736 0.00495821 0
4.00892 0.00510371 0
4.00689 0.00327126 0
4.00841 0.00337196 0
4.00892 0.00510371 0
4.01054 0.00519999 0
4.00841 0.00337196 0
4.00998 0.00344004 0
4.00412 0.00295513 0
4.00545 0.00313363 0
4.0039 0.00146577 0
4.00521 0.00155568 0
4.00545 0.00313363 0
4.00689 0.00327126 0
4.00521 0.00155568 0
4.00662 0.00162542 0
4.0039 0.00146577 0
4.00521 0.00155568 0
4.00383 -2.60789e-09 0
4.00513 -2.70635e-09 0
4.00521 0.00155568 0
4.00662 0.00162542 0
4.00513 -2.70635e-09 0
4.00653 -2.76046e-09 0
4.00689 0.00327126 0
4.00841 0.00337196 0
4.00662 0.00162542 0
4.00811 0.00167683 0
4.00841 0.00337196 0
4.00998 0.00344004 0
4.00811 0.00167683 0
4.00966 0.001712 0
4.00662 0.00162542 0
4.00811 0.00167683 0
4.00653 -2.76046e-09 0
4.00801 -2.7702e-09 0
4.00811 0.00167683 0
4.00966 0.001712 0
4.00801 -2.7702e-09 0
4.00956 -2.73278e-09 0
4.01134 0.00700746 0
4.01304 0.00706843 0
4.01054 0.00519999 0
4.01219 0.00525402 0
4.01304 0.00706843 0
4.01476 0.00708268 0
4.01219 0.00525402 0
4.01387 0.00527252 0
4.01054 0.00519999 0
4.01219 0.00525402 0
4.00998 0.00344004 0
4.01161 0.00347991 0
4.01219 0.00525402 0
4.01387 0.00527252 0
4.01161 0.00347991 0
4.01326 0.0034959 0
4.01476 0.00708268 0
4.01648 0.00705878 0
4.01387 0.00527252 0
4.01556 0.00526173 0
4.01648 0.00705878 0
4.0182 0.00700436 0
4.01556 0.00526173 0
4.01726 0.0052273 0
4.01387 0.00527252 0
4.01556 0.00526173 0
4.01326 0.0034959 0
4.01493 0.00349209 0
4.01556 0.00526173 0
4.01726 0.0052273 0
4.01493 0.00349209 0
4.0166 0.00347219 0
4.00998 0.00344004 0
4.01161 0.00347991 0
4.00966 0.001712 0
4.01126 0.00173308 0
4.01161 0.00347991 0
4.01326 0.0034959 0
4.01126 0.00173308 0
4.0129 0.00174216 0
4.00966 0.001712 0
4.01126 0.00173308 0
4.00956 -2.73278e-09 0
4.01115 -2.64355e-09 0
4.01126 0.00173308 0
4.0129 0.00174216 0
4.01115 -2.64355e-09 0
4.01278 -2.4972e-09 0
4.01326 0.0034959 0
4.01493 0.00349209 0
4.0129 0.00174216 0
4.01455 0.00174126 0
4.01493 0.00349209 0
4.0166 0.00347219 0
4.01455 0.00174126 0
4.01622 0.00173223 0
4.0129 0.00174216 0
4.01455 0.00174126 0
4.01278 -2.4972e-09 0
4.01443 -2.28982e-09 0
4.01455 0.00174126 0
4.01622 0.00173223 0
4.01443 -2.28982e-09 0
4.01609 -2.01887e-09 0
4.04828 0.0212191 0
4.05003 0.0206536 0
4.04168 0.0193751 0
4.04344 0.018885 0
4.05003 0.0206536 0
4.05173 0.020097 0
4.04344 0.018885 0
4.04513 0.0183983 0
4.04168 0.0193751 0
4.04344 0.018885 0
4.03659 0.0175375 0
4.03834 0.0171193 0
4.04344 0.018885 0
4.04513 0.0183983 0
4.03834 0.0171193 0
4.04003 0.0166998 0
4.03291 0.0183453 0
4.03478 0.0179487 0
4.02891 0.0163705 0
4.03076 0.0160495 0
4.03478 0.0179487 0
4.03659 0.0175375 0
4.03076 0.0160495 0
4.03255 0.0157101 0
4.02891 0.0163705 0
4.03076 0.0160495 0
4.02572 0.014427 0
4.02753 0.0141734 0
4.03076 0.0160495 0
4.03255 0.0157101 0
4.02753 0.0141734 0
4.02931 0.0138976 0
4.03659 0.0175375 0
4.03834 0.0171193 0
4.03255 0.0157101 0
4.03429 0.0153592 0
4.03834 0.0171193 0
4.04003 0.0166998 0
4.03429 0.0153592 0
4.03598 0.0150028 0
4.03255 0.0157101 0
4.03429 0.0153592 0
4.02931 0.0138976 0
4.03103 0.0136075 0
4.03429 0.0153592 0
4.03598 0.0150028 0
4.03103 0.0136075 0
4.03272 0.0133095 0
4.05173 0.020097 0
4.05337 0.0195509 0
4.04513 0.0183983 0
4.04677 0.0179177 0
4.05337 0.0195509 0
4.05495 0.0190154 0
4.04677 0.0179177 0
4.04836 0.0174452 0
4.04513 0.0183983 0
4.04677 0.0179177 0
4.04003 0.0166998 0
4.04167 0.0162827 0
4.04677 0.0179177 0
4.04836 0.0174452 0
4.04167 0.0162827 0
4.04326 0.0158718 0
4.04003 0.0166998 0
4.04167 0.0162827 0
4.03598 0.0150028 0
4.03762 0.014646 0
4.04167 0.0162827 0
4.04326 0.0158718 0
4.03762 0.014646 0
4.03921 0.0142929 0
4.03598 0.0150028 0
4.03762 0.014646 0
4.03272 0.0133095 0
4.03436 0.0130087 0
4.03762 0.014646 0
4.03921 0.0142929 0
4.03436 0.0130087 0
4.03595 0.0127096 0
4.04326 0.0158718 0
4.0448 0.0154693 0
4.03921 0.0142929 0
4.04076 0.0139466 0
4.0448 0.0154693 0
4.04629 0.0150782 0
4.04076 0.0139466 0
4.04225 0.0136111 0
4.03921 0.0142929 0
4.04076 0.0139466 0
4.03595 0.0127096 0
4.03751 0.012416 0
4.04076 0.0139466 0
4.04225 0.0136111 0
4.03751 0.012416 0
4.03901 0.0121319 0
4.04629 0.0150782 0
4.04772 0.0147022 0
4.04225 0.0136111 0
4.0437 0.0132903 0
4.04772 0.0147022 0
4.0491 0.0143458 0
4.0437 0.0132903 0
4.0451 0.012989 0
4.04225 0.0136111 0
4.0437 0.0132903 0
4.03901 0.0121319 0
4.04048 0.0118614 0
4.0437 0.0132903 0
4.0451 0.012989 0
4.04048 0.0118614 0
4.04189 0.011609 0
4.0491 0.0143458 0
4.05042 0.0140153 0
4.0451 0.012989 0
4.04645 0.0127128 0
4.05042 0.0140153 0
4.05168 0.0137191 0
4.04645 0.0127128 0
4.04774 0.0124689 0
4.0451 0.012989 0
4.04645 0.0127128 0
4.04189 0.011609 0
4.04327 0.0113797 0
4.04645 0.0127128 0
4.04774 0.0124689 0
4.04327 0.0113797 0
4.0446 0.0111794 0
4.05168 0.0137191 0
4.05289 0.0134681 0
4.04774 0.0124689 0
4.04899 0.0122657 0
4.05289 0.0134681 0
4.05404 0.0132752 0
4.04899 0.0122657 0
4.0502 0.012112 0
4.04774 0.0124689 0
4.04899 0.0122657 0
4.0446 0.0111794 0
4.04589 0.0110143 0
4.04899 0.0122657 0
4.0502 0.012112 0
4.04589 0.0110143 0
4.04714 0.0108908 0
4.05404 0.0132752 0
4.05515 0.0131534 0
4.0502 0.012112 0
4.05138 0.0120166 0
4.05515 0.0131534 0
4.05625 0.0131141 0
4.05138 0.0120166 0
4.05255 0.0119858 0
4.0502 0.012112 0
4.05138 0.0120166 0
4.04714 0.0108908 0
4.04838 0.0108147 0
4.05138 0.0120166 0
4.05255 0.0119858 0
4.04838 0.0108147 0
4.0496 0.0107902 0
4.02572 0.014427 0
4.02753 0.0141734 0
4.02315 0.0125187 0
4.02494 0.0123221 0
4.02753 0.0141734 0
4.02931 0.0138976 0
4.02494 0.0123221 0
4.02669 0.0121023 0
4.02315 0.0125187 0
4.02494 0.0123221 0
4.02109 0.0106463 0
4.02285 0.0104975 0
4.02494 0.0123221 0
4.02669 0.0121023 0
4.02285 0.0104975 0
4.02458 0.0103259 0
4.02931 0.0138976 0
4.03103 0.0136075 0
4.02669 0.0121023 0
4.0284 0.0118667 0
4.03103 0.0136075 0
4.03272 0.0133095 0
4.0284 0.0118667 0
4.03008 0.0116217 0
4.02669 0.0121023 0
4.0284 0.0118667 0
4.02458 0.0103259 0
4.02628 0.0101384 0
4.0284 0.0118667 0
4.03008 0.0116217 0
4.02628 0.0101384 0
4.02795 0.00994085 0
4.02109 0.0106463 0
4.02285 0.0104975 0
4.01946 0.00880919 0
4.0212 0.00869947 0
4.02285 0.0104975 0
4.02458 0.0103259 0
4.0212 0.00869947 0
4.02291 0.00856879 0
4.01946 0.00880919 0
4.0212 0.00869947 0
4.0182 0.00700436 0
4.01991 0.00692613 0
4.0212 0.00869947 0
4.02291 0.00856879 0
4.01991 0.00692613 0
4.0216 0.00682988 0
4.02458 0.0103259 0
4.02628 0.0101384 0
4.02291 0.00856879 0
4.0246 0.00842319 0
4.02628 0.0101384 0
4.02795 0.00994085 0
4.0246 0.00842319 0
4.02625 0.00826779 0
4.02291 0.00856879 0
4.0246 0.00842319 0
4.0216 0.00682988 0
4.02328 0.00672061 0
4.0246 0.00842319 0
4.02625 0.00826779 0
4.02328 0.00672061 0
4.02493 0.0066026 0
4.03272 0.0133095 0
4.03436 0.0130087 0
4.03008 0.0116217 0
4.03172 0.0113723 0
4.03436 0.0130087 0
4.03595 0.0127096 0
4.03172 0.0113723 0
4.03332 0.011123 0
4.03008 0.0116217 0
4.03172 0.0113723 0
4.02795 0.00994085 0
4.02959 0.00973807 0
4.03172 0.0113723 0
4.03332 0.011123 0
4.02959 0.00973807 0
4.03119 0.00953438 0
4.03595 0.0127096 0
4.03751 0.012416 0
4.03332 0.011123 0
4.03487 0.010878 0
4.03751 0.012416 0
4.03901 0.0121319 0
4.03487 0.010878 0
4.03639 0.010641 0
4.03332 0.011123 0
4.03487 0.010878 0
4.03119 0.00953438 0
4.03275 0.00933365 0
4.03487 0.010878 0
4.03639 0.010641 0
4.03275 0.00933365 0
4.03427 0.00913949 0
4.02795 0.00994085 0
4.02959 0.00973807 0
4.02625 0.00826779 0
4.02788 0.008107 0
4.02959 0.00973807 0
4.03119 0.00953438 0
4.02788 0.008107 0
4.02948 0.00794468 0
4.02625 0.00826779 0
4.02788 0.008107 0
4.02493 0.0066026 0
4.02656 0.00647957 0
4.02788 0.008107 0
4.02948 0.00794468 0
4.02656 0.00647957 0
4.02815 0.00635478 0
4.03119 0.00953438 0
4.03275 0.00933365 0
4.02948 0.00794468 0
4.03105 0.00778429 0
4.03275 0.00933365 0
4.03427 0.00913949 0
4.03105 0.00778429 0
4.03258 0.00762904 0
4.02948 0.00794468 0
4.03105 0.00778429 0
4.02815 0.00635478 0
4.02972 0.00623114 0
4.03105 0.00778429 0
4.03258 0.00762904 0
4.02972 0.00623114 0
4.03126 0.00611135 0
4.0182 0.00700436 0
4.01991 0.00692613 0
4.01726 0.0052273 0
4.01895 0.00517427 0
4.01991 0.00692613 0
4.0216 0.00682988 0
4.01895 0.00517427 0
4.02063 0.00510703 0
4.01726 0.0052273 0
4.01895 0.00517427 0
4.0166 0.00347219 0
4.01828 0.00343955 0
4.01895 0.00517427 0
4.02063 0.00510703 0
4.01828 0.00343955 0
4.01995 0.00339711 0
4.0216 0.00682988 0
4.02328 0.00672061 0
4.02063 0.00510703 0
4.02229 0.0050294 0
4.02328 0.00672061 0
4.02493 0.0066026 0
4.02229 0.0050294 0
4.02394 0.00494469 0
4.02063 0.00510703 0
4.02229 0.0050294 0
4.01995 0.00339711 0
4.02161 0.00334745 0
4.02229 0.0050294 0
4.02394 0.00494469 0
4.02161 0.00334745 0
4.02325 0.00329283 0
4.0166 0.00347219 0
4.01828 0.00343955 0
4.01622 0.00173223 0
4.01789 0.00171673 0
4.01828 0.00343955 0
4.01995 0.00339711 0
4.01789 0.00171673 0
4.01955 0.00169623 0
4.01622 0.00173223 0
4.01789 0.00171673 0
4.01609 -2.01887e-09 0
4.01776 -1.68818e-09 0
4.01789 0.00171673 0
4.01955 0.00169623 0
4.01776 -1.68818e-09 0
4.01942 -1.30862e-09 0
4.01995 0.00339711 0
4.02161 0.00334745 0