# vtk DataFile Version 3.0
#This file was generated by the deal.II library on 2026/4/1 at 16:36:47
ASCII
DATASET UNSTRUCTURED_GRID

POINTS 672 double
0 0 0
0.214286 0 0
0 0.25 0
0.214286 0.25 0
0 0.25 0
0.214286 0.25 0
0 0.5 0
0.214286 0.5 0
0 0.5 0
0.214286 0.5 0
0 0.75 0
0.214286 0.75 0
0 0.75 0
0.214286 0.75 0
0 1 0
0.214286 1 0
0.214286 0 0
0.428571 0 0
0.214286 0.25 0
0.428571 0.25 0
0.214286 0.25 0
0.428571 0.25 0
0.214286 0.5 0
0.428571 0.5 0
0.214286 0.5 0
0.428571 0.5 0
0.214286 0.75 0
0.428571 0.75 0
0.214286 0.75 0
0.428571 0.75 0
0.214286 1 0
0.428571 1 0
0.428571 0 0
0.642857 0 0
0.428571 0.25 0
0.642857 0.25 0
0.428571 0.25 0
0.642857 0.25 0
0.428571 0.5 0
0.642857 0.5 0
0.428571 0.5 0
0.642857 0.5 0
0.428571 0.75 0
0.642857 0.75 0
0.428571 0.75 0
0.642857 0.75 0
0.428571 1 0
0.642857 1 0
0.642857 0 0
0.857143 0 0
0.642857 0.25 0
0.857143 0.25 0
0.642857 0.25 0
0.857143 0.25 0
0.642857 0.5 0
0.857143 0.5 0
0.642857 0.5 0
0.857143 0.5 0
0.642857 0.75 0
0.857143 0.75 0
0.642857 0.75 0
0.857143 0.75 0
0.642857 1 0
0.857143 1 0
0.857143 0 0
1.07143 0 0
0.857143 0.25 0
1.07143 0.25 0
0.857143 0.25 0
1.07143 0.25 0
0.857143 0.5 0
1.07143 0.5 0
0.857143 0.5 0
1.07143 0.5 0
0.857143 0.75 0
1.07143 0.75 0
0.857143 0.75 0
1.07143 0.75 0
0.857143 1 0
1.07143 1 0
1.07143 0 0
1.28571 0 0
1.07143 0.25 0
1.28571 0.25 0
1.07143 0.25 0
1.28571 0.25 0
1.07143 0.5 0
1.28571 0.5 0
1.07143 0.5 0
1.28571 0.5 0
1.07143 0.75 0
1.28571 0.75 0
1.07143 0.75 0
1.28571 0.75 0
1.07143 1 0
1.28571 1 0
1.28571 0 0
1.5 0 0
1.28571 0.25 0
1.5 0.25 0
1.28571 0.25 0
1.5 0.25 0
1.28571 0.5 0
1.5 0.5 0
1.28571 0.5 0
1.5 0.5 0
1.28571 0.75 0
1.5 0.75 0
1.28571 0.75 0
1.5 0.75 0
1.28571 1 0
1.5 1 0
1.5 0 0
1.71429 0 0
1.5 0.25 0
1.71429 0.25 0
1.5 0.25 0
1.71429 0.25 0
1.5 0.5 0
1.71429 0.5 0
1.5 0.5 0
1.71429 0.5 0
1.5 0.75 0
1.71429 0.75 0
1.5 0.75 0
1.71429 0.75 0
1.5 1 0
1.71429 1 0
1.71429 0 0
1.92857 0 0
1.71429 0.25 0
1.92857 0.25 0
1.71429 0.25 0
1.92857 0.25 0
1.71429 0.5 0
1.92857 0.5 0
1.71429 0.5 0
1.92857 0.5 0
1.71429 0.75 0
1.92857 0.75 0
1.71429 0.75 0
1.92857 0.75 0
1.71429 1 0
1.92857 1 0
1.92857 0 0
2.14286 0 0
1.92857 0.25 0
2.14286 0.25 0
1.92857 0.25 0
2.14286 0.25 0
1.92857 0.5 0
2.14286 0.5 0
1.92857 0.5 0
2.14286 0.5 0
1.92857 0.75 0
2.14286 0.75 0
1.92857 0.75 0
2.14286 0.75 0
1.92857 1 0
2.14286 1 0
2.14286 0 0
2.35714 0 0
2.14286 0.25 0
2.35714 0.25 0
2.14286 0.25 0
2.35714 0.25 0
2.14286 0.5 0
2.35714 0.5 0
2.14286 0.5 0
2.35714 0.5 0
2.14286 0.75 0
2.35714 0.75 0
2.14286 0.75 0
2.35714 0.75 0
2.14286 1 0
2.35714 1 0
2.35714 0 0
2.57143 0 0
2.35714 0.25 0
2.57143 0.25 0
2.35714 0.25 0
2.57143 0.25 0
2.35714 0.5 0
2.57143 0.5 0
2.35714 0.5 0
2.57143 0.5 0
2.35714 0.75 0
2.57143 0.75 0
2.35714 0.75 0
2.57143 0.75 0
2.35714 1 0
2.57143 1 0
2.57143 0 0
2.78571 0 0
2.57143 0.25 0
2.78571 0.25 0
2.57143 0.25 0
2.78571 0.25 0
2.57143 0.5 0
2.78571 0.5 0
2.57143 0.5 0
2.78571 0.5 0
2.57143 0.75 0
2.78571 0.75 0
2.57143 0.75 0
2.78571 0.75 0
2.57143 1 0
2.78571 1 0
2.78571 0 0
3 0 0
2.78571 0.25 0
3 0.25 0
2.78571 0.25 0
3 0.25 0
2.78571 0.5 0
3 0.5 0
2.78571 0.5 0
3 0.5 0
2.78571 0.75 0
3 0.75 0
2.78571 0.75 0
3 0.75 0
2.78571 1 0
3 1 0
0 2 0
0 1.75 0
0.214286 2 0
0.214286 1.75 0
0.214286 2 0
0.214286 1.75 0
0.428571 2 0
0.428571 1.75 0
0.428571 2 0
0.428571 1.75 0
0.642857 2 0
0.642857 1.75 0
0.642857 2 0
0.642857 1.75 0
0.857143 2 0
0.857143 1.75 0
0.857143 2 0
0.857143 1.75 0
1.07143 2 0
1.07143 1.75 0
1.07143 2 0
1.07143 1.75 0
1.28571 2 0
1.28571 1.75 0
1.28571 2 0
1.28571 1.75 0
1.5 2 0
1.5 1.75 0
1.5 2 0
1.5 1.75 0
1.71429 2 0
1.71429 1.75 0
1.71429 2 0
1.71429 1.75 0
1.92857 2 0
1.92857 1.75 0
1.92857 2 0
1.92857 1.75 0
2.14286 2 0
2.14286 1.75 0
2.14286 2 0
2.14286 1.75 0
2.35714 2 0
2.35714 1.75 0
2.35714 2 0
2.35714 1.75 0
2.57143 2 0
2.57143 1.75 0
2.57143 2 0
2.57143 1.75 0
2.78571 2 0
2.78571 1.75 0
2.78571 2 0
2.78571 1.75 0
3 2 0
3 1.75 0
0 1.75 0
0 1.5 0
0.214286 1.75 0
0.214286 1.5 0
0.214286 1.75 0
0.214286 1.5 0
0.428571 1.75 0
0.428571 1.5 0
0.428571 1.75 0
0.428571 1.5 0
0.642857 1.75 0
0.642857 1.5 0
0.642857 1.75 0
0.642857 1.5 0
0.857143 1.75 0
0.857143 1.5 0
0.857143 1.75 0
0.857143 1.5 0
1.07143 1.75 0
1.07143 1.5 0
1.07143 1.75 0
1.07143 1.5 0
1.28571 1.75 0
1.28571 1.5 0
1.28571 1.75 0
1.28571 1.5 0
1.5 1.75 0
1.5 1.5 0
1.5 1.75 0
1.5 1.5 0
1.71429 1.75 0
1.71429 1.5 0
1.71429 1.75 0
1.71429 1.5 0
1.92857 1.75 0
1.92857 1.5 0
1.92857 1.75 0
1.92857 1.5 0
2.14286 1.75 0
2.14286 1.5 0
2.14286 1.75 0
2.14286 1.5 0
2.35714 1.75 0
2.35714 1.5 0
2.35714 1.75 0
2.35714 1.5 0
2.57143 1.75 0
2.57143 1.5 0
2.57143 1.75 0
2.57143 1.5 0
2.78571 1.75 0
2.78571 1.5 0
2.78571 1.75 0
2.78571 1.5 0
3 1.75 0
3 1.5 0
0 1.5 0
0 1.25 0
0.214286 1.5 0
0.214286 1.25 0
0.214286 1.5 0
0.214286 1.25 0
0.428571 1.5 0
0.428571 1.25 0
0.428571 1.5 0
0.428571 1.25 0
0.642857 1.5 0
0.642857 1.25 0
0.642857 1.5 0
0.642857 1.25 0
0.857143 1.5 0
0.857143 1.25 0
0.857143 1.5 0
0.857143 1.25 0
1.07143 1.5 0
1.07143 1.25 0
1.07143 1.5 0
1.07143 1.25 0
1.28571 1.5 0
1.28571 1.25 0
1.28571 1.5 0
1.28571 1.25 0
1.5 1.5 0
1.5 1.25 0
1.5 1.5 0
1.5 1.25 0
1.71429 1.5 0
1.71429 1.25 0
1.71429 1.5 0
1.71429 1.25 0
1.92857 1.5 0
1.92857 1.25 0
1.92857 1.5 0
1.92857 1.25 0
2.14286 1.5 0
2.14286 1.25 0
2.14286 1.5 0
2.14286 1.25 0
2.35714 1.5 0
2.35714 1.25 0
2.35714 1.5 0
2.35714 1.25 0
2.57143 1.5 0
2.57143 1.25 0
2.57143 1.5 0
2.57143 1.25 0
2.78571 1.5 0
2.78571 1.25 0
2.78571 1.5 0
2.78571 1.25 0
3 1.5 0
3 1.25 0
0 1.25 0
0 1 0
0.214286 1.25 0
0.214286 1 0
0.214286 1.25 0
0.214286 1 0
0.428571 1.25 0
0.428571 1 0
0.428571 1.25 0
0.428571 1 0
0.642857 1.25 0
0.642857 1 0
0.642857 1.25 0
0.642857 1 0
0.857143 1.25 0
0.857143 1 0
0.857143 1.25 0
0.857143 1 0
1.07143 1.25 0
1.07143 1 0
1.07143 1.25 0
1.07143 1 0
1.28571 1.25 0
1.28571 1 0
1.28571 1.25 0
1.28571 1 0
1.5 1.25 0
1.5 1 0
1.5 1.25 0
1.5 1 0
1.71429 1.25 0
1.71429 1 0
1.71429 1.25 0
1.71429 1 0
1.92857 1.25 0
1.92857 1 0
1.92857 1.25 0
1.92857 1 0
2.14286 1.25 0
2.14286 1 0
2.14286 1.25 0
2.14286 1 0
2.35714 1.25 0
2.35714 1 0
2.35714 1.25 0
2.35714 1 0
2.57143 1.25 0
2.57143 1 0
2.57143 1.25 0
2.57143 1 0
2.78571 1.25 0
2.78571 1 0
2.78571 1.25 0
2.78571 1 0
3 1.25 0
3 1 0
0 3 0
0 2.75 0
0.214286 3 0
0.214286 2.75 0
0.214286 3 0
0.214286 2.75 0
0.428571 3 0
0.428571 2.75 0
0.428571 3 0
0.428571 2.75 0
0.642857 3 0
0.642857 2.75 0
0.642857 3 0
0.642857 2.75 0
0.857143 3 0
0.857143 2.75 0
0.857143 3 0
0.857143 2.75 0
1.07143 3 0
1.07143 2.75 0
1.07143 3 0
1.07143 2.75 0
1.28571 3 0
1.28571 2.75 0
1.28571 3 0
1.28571 2.75 0
1.5 3 0
1.5 2.75 0
1.5 3 0
1.5 2.75 0
1.71429 3 0
1.71429 2.75 0
1.71429 3 0
1.71429 2.75 0
1.92857 3 0
1.92857 2.75 0
1.92857 3 0
1.92857 2.75 0
2.14286 3 0
2.14286 2.75 0
2.14286 3 0
2.14286 2.75 0
2.35714 3 0
2.35714 2.75 0
2.35714 3 0
2.35714 2.75 0
2.57143 3 0
2.57143 2.75 0
2.57143 3 0
2.57143 2.75 0
2.78571 3 0
2.78571 2.75 0
2.78571 3 0
2.78571 2.75 0
3 3 0
3 2.75 0
0 2.75 0
0 2.5 0
0.214286 2.75 0
0.214286 2.5 0
0.214286 2.75 0
0.214286 2.5 0
0.428571 2.75 0
0.428571 2.5 0
0.428571 2.75 0
0.428571 2.5 0
0.642857 2.75 0
0.642857 2.5 0
0.642857 2.75 0
0.642857 2.5 0
0.857143 2.75 0
0.857143 2.5 0
0.857143 2.75 0
0.857143 2.5 0
1.07143 2.75 0
1.07143 2.5 0
1.07143 2.75 0
1.07143 2.5 0
1.28571 2.75 0
1.28571 2.5 0
1.28571 2.75 0
1.28571 2.5 0
1.5 2.75 0
1.5 2.5 0
1.5 2.75 0
1.5 2.5 0
1.71429 2.75 0
1.71429 2.5 0
1.71429 2.75 0
1.71429 2.5 0
1.92857 2.75 0
1.92857 2.5 0
1.92857 2.75 0
1.92857 2.5 0
2.14286 2.75 0
2.14286 2.5 0
2.14286 2.75 0
2.14286 2.5 0
2.35714 2.75 0
2.35714 2.5 0
2.35714 2.75 0
2.35714 2.5 0
2.57143 2.75 0
2.57143 2.5 0
2.57143 2.75 0
2.57143 2.5 0
2.78571 2.75 0
2.78571 2.5 0
2.78571 2.75 0
2.78571 2.5 0
3 2.75 0
3 2.5 0
0 2.5 0
0 2.25 0
0.214286 2.5 0
0.214286 2.25 0
0.214286 2.5 0
0.214286 2.25 0
0.428571 2.5 0
0.428571 2.25 0
0.428571 2.5 0
0.428571 2.25 0
0.642857 2.5 0
0.642857 2.25 0
0.642857 2.5 0
0.642857 2.25 0
0.857143 2.5 0
0.857143 2.25 0
0.857143 2.5 0
0.857143 2.25 0
1.07143 2.5 0
1.07143 2.25 0
1.07143 2.5 0
1.07143 2.25 0
1.28571 2.5 0
1.28571 2.25 0
1.28571 2.5 0
1.28571 2.25 0
1.5 2.5 0
1.5 2.25 0
1.5 2.5 0
1.5 2.25 0
1.71429 2.5 0
1.71429 2.25 0
1.71429 2.5 0
1.71429 2.25 0
1.92857 2.5 0
1.92857 2.25 0
1.92857 2.5 0
1.92857 2.25 0
2.14286 2.5 0
2.14286 2.25 0
2.14286 2.5 0
2.14286 2.25 0
2.35714 2.5 0
2.35714 2.25 0
2.35714 2.5 0
2.35714 2.25 0
2.57143 2.5 0
2.57143 2.25 0
2.57143 2.5 0
2.57143 2.25 0
2.78571 2.5 0
2.78571 2.25 0
2.78571 2.5 0
2.78571 2.25 0
3 2.5 0
3 2.25 0
0 2.25 0
0 2 0
0.214286 2.25 0
0.214286 2 0
0.214286 2.25 0
0.214286 2 0
0.428571 2.25 0
0.428571 2 0
0.428571 2.25 0
0.428571 2 0
0.642857 2.25 0
0.642857 2 0
0.642857 2.25 0
0.642857 2 0
0.857143 2.25 0
0.857143 2 0
0.857143 2.25 0
0.857143 2 0
1.07143 2.25 0
1.07143 2 0
1.07143 2.25 0
1.07143 2 0
1.28571 2.25 0
1.28571 2 0
1.28571 2.25 0
1.28571 2 0
1.5 2.25 0
1.5 2 0
1.5 2.25 0
1.5 2 0
1.71429 2.25 0
1.71429 2 0
1.71429 2.25 0
1.71429 2 0
1.92857 2.25 0
1.92857 2 0
1.92857 2.25 0
1.92857 2 0
2.14286 2.25 0
2.14286 2 0
2.14286 2.25 0
2.14286 2 0
2.35714 2.25 0
2.35714 2 0
2.35714 2.25 0
2.35714 2 0
2.57143 2.25 0
2.57143 2 0
2.57143 2.25 0
2.57143 2 0
2.78571 2.25 0
2.78571 2 0
2.78571 2.25 0
2.78571 2 0
3 2.25 0
3 2 0

CELLS 168 840
4	0	1	3	2
4	4	5	7	6
4	8	9	11	10
4	12	13	15	14
4	16	17	19	18
4	20	21	23	22
4	24	25	27	26
4	28	29	31	30
4	32	33	35	34
4	36	37	39	38
4	40	41	43	42
4	44	45	47	46
4	48	49	51	50
4	52	53	55	54
4	56	57	59	58
4	60	61	63	62
4	64	65	67	66
4	68	69	71	70
4	72	73	75	74
4	76	77	79	78
4	80	81	83	82
4	84	85	87	86
4	88	89	91	90
4	92	93	95	94
4	96	97	99	98
4	100	101	103	102
4	104	105	107	106
4	108	109	111	110
4	112	113	115	114
4	116	117	119	118
4	120	121	123	122
4	124	125	127	126
4	128	129	131	130
4	132	133	135	134
4	136	137	139	138
4	140	141	143	142
4	144	145	147	146
4	148	149	151	150
4	152	153	155	154
4	156	157	159	158
4	160	161	163	162
4	164	165	167	166
4	168	169	171	170
4	172	173	175	174
4	176	177	179	178
4	180	181	183	182
4	184	185	187	186
4	188	189	191	190
4	192	193	195	194
4	196	197	199	198
4	200	201	203	202
4	204	205	207	206
4	208	209	211	210
4	212	213	215	214
4	216	217	219	218
4	220	221	223	222
4	224	225	227	226
4	228	229	231	230
4	232	233	235	234
4	236	237	239	238
4	240	241	243	242
4	244	245	247	246
4	248	249	251	250
4	252	253	255	254
4	256	257	259	258
4	260	261	263	262
4	264	265	267	266
4	268	269	271	270
4	272	273	275	274
4	276	277	279	278
4	280	281	283	282
4	284	285	287	286
4	288	289	291	290
4	292	293	295	294
4	296	297	299	298
4	300	301	303	302
4	304	305	307	306
4	308	309	311	310
4	312	313	315	314
4	316	317	319	318
4	320	321	323	322
4	324	325	327	326
4	328	329	331	330
4	332	333	335	334
4	336	337	339	338
4	340	341	343	342
4	344	345	347	346
4	348	349	351	350
4	352	353	355	354
4	356	357	359	358
4	360	361	363	362
4	364	365	367	366
4	368	369	371	370
4	372	373	375	374
4	376	377	379	378
4	380	381	383	382
4	384	385	387	386
4	388	389	391	390
4	392	393	395	394
4	396	397	399	398
4	400	401	403	402
4	404	405	407	406
4	408	409	411	410
4	412	413	415	414
4	416	417	419	418
4	420	421	423	422
4	424	425	427	426
4	428	429	431	430
4	432	433	435	434
4	436	437	439	438
4	440	441	443	442
4	444	445	447	446
4	448	449	451	450
4	452	453	455	454
4	456	457	459	458
4	460	461	463	462
4	464	465	467	466
4	468	469	471	470
4	472	473	475	474
4	476	477	479	478
4	480	481	483	482
4	484	485	487	486
4	488	489	491	490
4	492	493	495	494
4	496	497	499	498
4	500	501	503	502
4	504	505	507	506
4	508	509	511	510
4	512	513	515	514
4	516	517	519	518
4	520	521	523	522
4	524	525	527	526
4	528	529	531	530
4	532	533	535	534
4	536	537	539	538
4	540	541	543	542
4	544	545	547	546
4	548	549	551	550
4	552	553	555	554
4	556	557	559	558
4	560	561	563	562
4	564	565	567	566
4	568	569	571	570
4	572	573	575	574
4	576	577	579	578
4	580	581	583	582
4	584	585	587	586
4	588	589	591	590
4	592	593	595	594
4	596	597	599	598
4	600	601	603	602
4	604	605	607	606
4	608	609	611	610
4	612	613	615	614
4	616	617	619	618
4	620	621	623	622
4	624	625	627	626
4	628	629	631	630
4	632	633	635	634
4	636	637	639	638
4	640	641	643	642
4	644	645	647	646
4	648	649	651	650
4	652	653	655	654
4	656	657	659	658
4	660	661	663	662
4	664	665	667	666
4	668	669	671	670

CELL_TYPES 168
 9 9 9 9 9 9 9 9 9 9 9 9 9 9 9 9 9 9 9 9 9 9 9 9 9 9 9 9 9 9 9 9 9 9 9 9 9 9 9 9 9 9 9 9 9 9 9 9 9 9 9 9 9 9 9 9 9 9 9 9 9 9 9 9 9 9 9 9 9 9 9 9 9 9 9 9 9 9 9 9 9 9 9 9 9 9 9 9 9 9 9 9 9 9 9 9 9 9 9 9 9 9 9 9 9 9 9 9 9 9 9 9 9 9 9 9 9 9 9 9 9 9 9 9 9 9 9 9 9 9 9 9 9 9 9 9 9 9 9 9 9 9 9 9 9 9 9 9 9 9 9 9 9 9 9 9 9 9 9 9 9 9 9 9 9 9 9 9
POINT_DATA 672
VECTORS velocity double
0 0 0
0 0 0
0 0 0
0 0 0
0 0 0
0 0 0
0 0 0
0 0 0
0 0 0
0 0 0
0 0 0
0 0 0
0 0 0
0 0 0
0 0 0
0 0 0
0 0 0
0 0 0
0 0 0
0 0 0
0 0 0
0 0 0
0 0 0
0 0 0
0 0 0
0 0 0
0 0 0
0 0 0
0 0 0
0 0 0
0 0 0
0 0 0
0 0 0
0 0 0
0 0 0
0 0 0
0 0 0
0 0 0
0 0 0
0 0 0
0 0 0
0 0 0
0 0 0
0 0 0
0 0 0
0 0 0
0 0 0
0 0 0
0 0 0
0 0 0
0 0 0
0 0 0
0 0 0
0 0 0
0 0 0
0 0 0
0 0 0
0 0 0
0 0 0
0 0 0
0 0 0
0 0 0
0 0 0
0 0 0
0 0 0
0 0 0
0 0 0
0 0 0
0 0 0
0 0 0
0 0 0
0 0 0
0 0 0
0 0 0
0 0 0
0 0 0
0 0 0
0 0 0
0 0 0
0 0 0
0 0 0
0 0 0
0 0 0
0 0 0
0 0 0
0 0 0
0 0 0
0 0 0
0 0 0
0 0 0
0 0 0
0 0 0
0 0 0
0 0 0
0 0 0
0 0 0
0 0 0
0 0 0
0 0 0
0 0 0
0 0 0
0 0 0
0 0 0
0 0 0
0 0 0
0 0 0
0 0 0
0 0 0
0 0 0
0 0 0
0 0 0
0 0 0
0 0 0
0 0 0
0 0 0
0 0 0
0 0 0
0 0 0
0 0 0
0 0 0
0 0 0
0 0 0
0 0 0
0 0 0
0 0 0
0 0 0
0 0 0
0 0 0
0 0 0
0 0 0
0 0 0
0 0 0
0 0 0
0 0 0
0 0 0
0 0 0
0 0 0
0 0 0
0 0 0
0 0 0
0 0 0
0 0 0
0 0 0
0 0 0
0 0 0
0 0 0
0 0 0
0 0 0
0 0 0
0 0 0
0 0 0
0 0 0
0 0 0
0 0 0
0 0 0
0 0 0
0 0 0
0 0 0
0 0 0
0 0 0
0 0 0
0 0 0
0 0 0
0 0 0
0 0 0
0 0 0
0 0 0
0 0 0
0 0 0
0 0 0
0 0 0
0 0 0
0 0 0
0 0 0
0 0 0
0 0 0
0 0 0
0 0 0
0 0 0
0 0 0
0 0 0
0 0 0
0 0 0
0 0 0
0 0 0
0 0 0
0 0 0
0 0 0
0 0 0
0 0 0
0 0 0
0 0 0
0 0 0
0 0 0
0 0 0
0 0 0
0 0 0
0 0 0
0 0 0
0 0 0
0 0 0
0 0 0
0 0 0
0 0 0
0 0 0
0 0 0
0 0 0
0 0 0
0 0 0
0 0 0
0 0 0
0 0 0
0 0 0
0 0 0
0 0 0
0 0 0
0 0 0
0 0 0
0 0 0
0 0 0
0 0 0
0 0 0
0 0 0
0 0 0
0 0 0
1.875 0 0
0 0 0
1.875 2.80021e-15 0
0 0 0
1.875 2.80021e-15 0
0 0 0
1.875 -7.64772e-16 0
0 0 0
1.875 -7.64772e-16 0
0 0 0
1.875 -8.53651e-15 0
0 0 0
1.875 -8.53651e-15 0
0 0 0
1.875 1.34515e-14 0
0 0 0
1.875 1.34515e-14 0
0 0 0
1.875 -3.06827e-15 0
0 0 0
1.875 -3.06827e-15 0
0 0 0
1.875 -4.8924e-15 0
0 0 0
1.875 -4.8924e-15 0
0 0 0
1.875 -8.2439e-16 0
0 0 0
1.875 -8.2439e-16 0
0 0 0
1.875 -5.57648e-15 0
0 0 0
1.875 -5.57648e-15 0
0 0 0
1.875 -1.82576e-16 0
0 0 0
1.875 -1.82576e-16 0
0 0 0
1.875 1.29449e-14 0
0 0 0
1.875 1.29449e-14 0
0 0 0
1.875 1.1474e-14 0
0 0 0
1.875 1.1474e-14 0
0 0 0
1.875 -4.00409e-17 0
0 0 0
1.875 -4.00409e-17 0
0 0 0
1.875 5.31633e-15 0
0 0 0
1.875 5.31633e-15 0
0 0 0
1.875 1.28348e-14 0
1.875 0 0
2.5 0 0
1.875 2.80021e-15 0
2.5 -9.6118e-17 0
1.875 2.80021e-15 0
2.5 -9.6118e-17 0
1.875 -7.64772e-16 0
2.5 6.57182e-18 0
1.875 -7.64772e-16 0
2.5 6.57182e-18 0
1.875 -8.53651e-15 0
2.5 3.90805e-17 0
1.875 -8.53651e-15 0
2.5 3.90805e-17 0
1.875 1.34515e-14 0
2.5 -1.31422e-17 0
1.875 1.34515e-14 0
2.5 -1.31422e-17 0
1.875 -3.06827e-15 0
2.5 -3.29506e-18 0
1.875 -3.06827e-15 0
2.5 -3.29506e-18 0
1.875 -4.8924e-15 0
2.5 8.97025e-18 0
1.875 -4.8924e-15 0
2.5 8.97025e-18 0
1.875 -8.2439e-16 0
2.5 -1.39778e-16 0
1.875 -8.2439e-16 0
2.5 -1.39778e-16 0
1.875 -5.57648e-15 0
2.5 1.58838e-16 0
1.875 -5.57648e-15 0
2.5 1.58838e-16 0
1.875 -1.82576e-16 0
2.5 -5.40497e-18 0
1.875 -1.82576e-16 0
2.5 -5.40497e-18 0
1.875 1.29449e-14 0
2.5 -1.68398e-16 0
1.875 1.29449e-14 0
2.5 -1.68398e-16 0
1.875 1.1474e-14 0
2.5 2.23554e-16 0
1.875 1.1474e-14 0
2.5 2.23554e-16 0
1.875 -4.00409e-17 0
2.5 -9.31406e-18 0
1.875 -4.00409e-17 0
2.5 -9.31406e-18 0
1.875 5.31633e-15 0
2.5 8.15014e-17 0
1.875 5.31633e-15 0
2.5 8.15014e-17 0
1.875 1.28348e-14 0
2.5 2.03751e-16 0
2.5 0 0
1.875 0 0
2.5 -9.6118e-17 0
1.875 -2.73799e-15 0
2.5 -9.6118e-17 0
1.875 -2.73799e-15 0
2.5 6.57182e-18 0
1.875 6.81065e-16 0
2.5 6.57182e-18 0
1.875 6.81065e-16 0
2.5 3.90805e-17 0
1.875 8.45232e-15 0
2.5 3.90805e-17 0
1.875 8.45232e-15 0
2.5 -1.31422e-17 0
1.875 -1.34415e-14 0
2.5 -1.31422e-17 0
1.875 -1.34415e-14 0
2.5 -3.29506e-18 0
1.875 2.76779e-15 0
2.5 -3.29506e-18 0
1.875 2.76779e-15 0
2.5 8.97025e-18 0
1.875 4.76292e-15 0
2.5 8.97025e-18 0
1.875 4.76292e-15 0
2.5 -1.39778e-16 0
1.875 1.12652e-15 0
2.5 -1.39778e-16 0
1.875 1.12652e-15 0
2.5 1.58838e-16 0
1.875 5.52172e-15 0
2.5 1.58838e-16 0
1.875 5.52172e-15 0
2.5 -5.40497e-18 0
1.875 2.39669e-16 0
2.5 -5.40497e-18 0
1.875 2.39669e-16 0
2.5 -1.68398e-16 0
1.875 -1.27644e-14 0
2.5 -1.68398e-16 0
1.875 -1.27644e-14 0
2.5 2.23554e-16 0
1.875 -1.14848e-14 0
2.5 2.23554e-16 0
1.875 -1.14848e-14 0
2.5 -9.31406e-18 0
1.875 9.91982e-17 0
2.5 -9.31406e-18 0
1.875 9.91982e-17 0
2.5 8.15014e-17 0
1.875 -5.20988e-15 0
2.5 8.15014e-17 0
1.875 -5.20988e-15 0
2.5 2.03751e-16 0
1.875 -1.28352e-14 0
1.875 0 0
0 0 0
1.875 -2.73799e-15 0
0 0 0
1.875 -2.73799e-15 0
0 0 0
1.875 6.81065e-16 0
0 0 0
1.875 6.81065e-16 0
0 0 0
1.875 8.45232e-15 0
0 0 0
1.875 8.45232e-15 0
0 0 0
1.875 -1.34415e-14 0
0 0 0
1.875 -1.34415e-14 0
0 0 0
1.875 2.76779e-15 0
0 0 0
1.875 2.76779e-15 0
0 0 0
1.875 4.76292e-15 0
0 0 0
1.875 4.76292e-15 0
0 0 0
1.875 1.12652e-15 0
0 0 0
1.875 1.12652e-15 0
0 0 0
1.875 5.52172e-15 0
0 0 0
1.875 5.52172e-15 0
0 0 0
1.875 2.39669e-16 0
0 0 0
1.875 2.39669e-16 0
0 0 0
1.875 -1.27644e-14 0
0 0 0
1.875 -1.27644e-14 0
0 0 0
1.875 -1.14848e-14 0
0 0 0
1.875 -1.14848e-14 0
0 0 0
1.875 9.91982e-17 0
0 0 0
1.875 9.91982e-17 0
0 0 0
1.875 -5.20988e-15 0
0 0 0
1.875 -5.20988e-15 0
0 0 0
1.875 -1.28352e-14 0
0 0 0
0 0 0
0 0 0
0 0 0
0 0 0
0 0 0
0 0 0
0 0 0
0 0 0
0 0 0
0 0 0
0 0 0
0 0 0
0 0 0
0 0 0
0 0 0
0 0 0
0 0 0
0 0 0
0 0 0
0 0 0
0 0 0
0 0 0
0 0 0
0 0 0
0 0 0
0 0 0
0 0 0
0 0 0
0 0 0
0 0 0
0 0 0
0 0 0
0 0 0
0 0 0
0 0 0
0 0 0
0 0 0
0 0 0
0 0 0
0 0 0
0 0 0
0 0 0
0 0 0
0 0 0
0 0 0
0 0 0
0 0 0
0 0 0
0 0 0
0 0 0
0 0 0
0 0 0
0 0 0
0 0 0
0 0 0
0 0 0
0 0 0
0 0 0
0 0 0
0 0 0
0 0 0
0 0 0
0 0 0
0 0 0
0 0 0
0 0 0
0 0 0
0 0 0
0 0 0
0 0 0
0 0 0
0 0 0
0 0 0
0 0 0
0 0 0
0 0 0
0 0 0
0 0 0
0 0 0
0 0 0
0 0 0
0 0 0
0 0 0
0 0 0
0 0 0
0 0 0
0 0 0
0 0 0
0 0 0
0 0 0
0 0 0
0 0 0
0 0 0
0 0 0
0 0 0
0 0 0
0 0 0
0 0 0
0 0 0
0 0 0
0 0 0
0 0 0
0 0 0
0 0 0
0 0 0
0 0 0
0 0 0
0 0 0
0 0 0
0 0 0
0 0 0
0 0 0
0 0 0
0 0 0
0 0 0
0 0 0
0 0 0
0 0 0
0 0 0
0 0 0
0 0 0
0 0 0
0 0 0
0 0 0
0 0 0
0 0 0
0 0 0
0 0 0
0 0 0
0 0 0
0 0 0
0 0 0
0 0 0
0 0 0
0 0 0
0 0 0
0 0 0
0 0 0
0 0 0
0 0 0
0 0 0
0 0 0
0 0 0
0 0 0
0 0 0
0 0 0
0 0 0
0 0 0
0 0 0
0 0 0
0 0 0
0 0 0
0 0 0
0 0 0
0 0 0
0 0 0
0 0 0
0 0 0
0 0 0
0 0 0
0 0 0
0 0 0
0 0 0
0 0 0
0 0 0
0 0 0
0 0 0
0 0 0
0 0 0
0 0 0
0 0 0
0 0 0
0 0 0
0 0 0
0 0 0
0 0 0
0 0 0
0 0 0
0 0 0
0 0 0
0 0 0
0 0 0
0 0 0
0 0 0
0 0 0
0 0 0
0 0 0
0 0 0
0 0 0
0 0 0
0 0 0
0 0 0
0 0 0
0 0 0
0 0 0
0 0 0
0 0 0
0 0 0
0 0 0
0 0 0
0 0 0
0 0 0
0 0 0
0 0 0
0 0 0
0 0 0
0 0 0
0 0 0
0 0 0
0 0 0
0 0 0
0 0 0
0 0 0
0 0 0
0 0 0
0 0 0
0 0 0
0 0 0
0 0 0
0 0 0
0 0 0
0 0 0
0 0 0
0 0 0
SCALARS pressure double 1
LOOKUP_TABLE default
0 0 0 0 0 0 0 0 0 0 0 0 0 0 0 0 0 0 0 0 0 0 0 0 0 0 0 0 0 0 0 0 0 0 0 0 0 0 0 0 0 0 0 0 0 0 0 0 0 0 0 0 0 0 0 0 0 0 0 0 0 0 0 0 0 0 0 0 0 0 0 0 0 0 0 0 0 0 0 0 0 0 0 0 0 0 0 0 0 0 0 0 0 0 0 0 0 0 0 0 0 0 0 0 0 0 0 0 0 0 0 0 0 0 0 0 0 0 0 0 0 0 0 0 0 0 0 0 0 0 0 0 0 0 0 0 0 0 0 0 0 0 0 0 0 0 0 0 0 0 0 0 0 0 0 0 0 0 0 0 0 0 0 0 0 0 0 0 0 0 0 0 0 0 0 0 0 0 0 0 0 0 0 0 0 0 0 0 0 0 0 0 0 0 0 0 0 0 0 0 0 0 0 0 0 0 0 0 0 0 0 0 0 0 0 0 0 0 0 0 0 0 0 0 0.008 0.008 0.00742857 0.00742857 0.00742857 0.00742857 0.00685714 0.00685714 0.00685714 0.00685714 0.00628571 0.00628571 0.00628571 0.00628571 0.00571429 0.00571429 0.00571429 0.00571429 0.00514286 0.00514286 0.00514286 0.00514286 0.00457143 0.00457143 0.00457143 0.00457143 0.004 0.004 0.004 0.004 0.00342857 0.00342857 0.00342857 0.00342857 0.00285714 0.00285714 0.00285714 0.00285714 0.00228571 0.00228571 0.00228571 0.00228571 0.00171429 0.00171429 0.00171429 0.00171429 0.00114286 0.00114286 0.00114286 0.00114286 0.000571429 0.000571429 0.000571429 0.000571429 -1.58724e-13 -4.34314e-14 0.008 0.008 0.00742857 0.00742857 0.00742857 0.00742857 0.00685714 0.00685714 0.00685714 0.00685714 0.00628571 0.00628571 0.00628571 0.00628571 0.00571429 0.00571429 0.00571429 0.00571429 0.00514286 0.00514286 0.00514286 0.00514286 0.00457143 0.00457143 0.00457143 0.00457143 0.004 0.004 0.004 0.004 0.00342857 0.00342857 0.00342857 0.00342857 0.00285714 0.00285714 0.00285714 0.00285714 0.00228571 0.00228571 0.00228571 0.00228571 0.00171429 0.00171429 0.00171429 0.00171429 0.00114286 0.00114286 0.00114286 0.00114286 0.000571429 0.000571429 0.000571429 0.000571429 -4.34314e-14 9.0455e-14 0.008 0.008 0.00742857 0.00742857 0.00742857 0.00742857 0.00685714 0.00685714 0.00685714 0.00685714 0.00628571 0.00628571 0.00628571 0.00628571 0.00571429 0.00571429 0.00571429 0.00571429 0.00514286 0.00514286 0.00514286 0.00514286 0.00457143 0.00457143 0.00457143 0.00457143 0.004 0.004 0.004 0.004 0.00342857 0.00342857 0.00342857 0.00342857 0.00285714 0.00285714 0.00285714 0.00285714 0.00228571 0.00228571 0.00228571 0.00228571 0.00171429 0.00171429 0.00171429 0.00171429 0.00114286 0.00114286 0.00114286 0.00114286 0.000571429 0.000571429 0.000571429 0.000571429 9.0455e-14 -4.32593e-14 0.008 0.008 0.00742857 0.00742857 0.00742857 0.00742857 0.00685714 0.00685714 0.00685714 0.00685714 0.00628571 0.00628571 0.00628571 0.00628571 0.00571429 0.00571429 0.00571429 0.00571429 0.00514286 0.00514286 0.00514286 0.00514286 0.00457143 0.00457143 0.00457143 0.00457143 0.004 0.004 0.004 0.004 0.00342857 0.00342857 0.00342857 0.00342857 0.00285714 0.00285714 0.00285714 0.00285714 0.00228571 0.00228571 0.00228571 0.00228571 0.00171429 0.00171429 0.00171429 0.00171429 0.00114286 0.00114286 0.00114286 0.00114286 0.000571429 0.000571429 0.000571429 0.000571429 -4.32593e-14 -1.59703e-13 0 0 0 0 0 0 0 0 0 0 0 0 0 0 0 0 0 0 0 0 0 0 0 0 0 0 0 0 0 0 0 0 0 0 0 0 0 0 0 0 0 0 0 0 0 0 0 0 0 0 0 0 0 0 0 0 0 0 0 0 0 0 0 0 0 0 0 0 0 0 0 0 0 0 0 0 0 0 0 0 0 0 0 0 0 0 0 0 0 0 0 0 0 0 0 0 0 0 0 0 0 0 0 0 0 0 0 0 0 0 0 0 0 0 0 0 0 0 0 0 0 0 0 0 0 0 0 0 0 0 0 0 0 0 0 0 0 0 0 0 0 0 0 0 0 0 0 0 0 0 0 0 0 0 0 0 0 0 0 0 0 0 0 0 0 0 0 0 0 0 0 0 0 0 0 0 0 0 0 0 0 0 0 0 0 0 0 0 0 0 0 0 0 0 0 0 0 0 0 0 0 0 0 0 0 0 0 0 0 0 0 0 0 0 0 0 0 0 0 0 0 0 0 0 
SCALARS temperature double 1
LOOKUP_TABLE default
0 0 0.234977 0.23396 0.234977 0.23396 0.472963 0.470376 0.472963 0.470376 0.719485 0.712316 0.719485 0.712316 1 0.960646 0 0 0.23396 0.231219 0.23396 0.231219 0.470376 0.463904 0.470376 0.463904 0.712316 0.699078 0.712316 0.699078 0.960646 0.935588 0 0 0.231219 0.227377 0.231219 0.227377 0.463904 0.455434 0.463904 0.455434 0.699078 0.684391 0.699078 0.684391 0.935588 0.91344 0 0 0.227377 0.222991 0.227377 0.222991 0.455434 0.446187 0.455434 0.446187 0.684391 0.669522 0.684391 0.669522 0.91344 0.892493 0 0 0.222991 0.218424 0.222991 0.218424 0.446187 0.436786 0.446187 0.436786 0.669522 0.654892 0.669522 0.654892 0.892493 0.872378 0 0 0.218424 0.213889 0.218424 0.213889 0.436786 0.427551 0.436786 0.427551 0.654892 0.640711 0.654892 0.640711 0.872378 0.853044 0 0 0.213889 0.209514 0.213889 0.209514 0.427551 0.418678 0.427551 0.418678 0.640711 0.627138 0.640711 0.627138 0.853044 0.834556 0 0 0.209514 0.205396 0.209514 0.205396 0.418678 0.410325 0.418678 0.410325 0.627138 0.614339 0.627138 0.614339 0.834556 0.817047 0 0 0.205396 0.201623 0.205396 0.201623 0.410325 0.402649 0.410325 0.402649 0.614339 0.602512 0.614339 0.602512 0.817047 0.800724 0 0 0.201623 0.198291 0.201623 0.198291 0.402649 0.395836 0.402649 0.395836 0.602512 0.591914 0.602512 0.591914 0.800724 0.785886 0 0 0.198291 0.19551 0.198291 0.19551 0.395836 0.390108 0.395836 0.390108 0.591914 0.582882 0.591914 0.582882 0.785886 0.772963 0 0 0.19551 0.1934 0.19551 0.1934 0.390108 0.385723 0.390108 0.385723 0.582882 0.575844 0.582882 0.575844 0.772963 0.76257 0 0 0.1934 0.192074 0.1934 0.192074 0.385723 0.382946 0.385723 0.382946 0.575844 0.571301 0.575844 0.571301 0.76257 0.755558 0 0 0.192074 0.191622 0.192074 0.191622 0.382946 0.381992 0.382946 0.381992 0.571301 0.569716 0.571301 0.569716 0.755558 0.752995 1 1 0.960646 0.978031 0.960646 0.978031 0.935588 0.955277 0.935588 0.955277 0.91344 0.933277 0.91344 0.933277 0.892494 0.911999 0.892494 0.911999 0.872378 0.891431 0.872378 0.891431 0.853044 0.871613 0.853044 0.871613 0.834556 0.85263 0.834556 0.85263 0.817048 0.834613 0.817048 0.834613 0.800725 0.81776 0.800725 0.81776 0.785886 0.802358 0.785886 0.802358 0.772964 0.788825 0.772964 0.788825 0.762571 0.777771 0.762571 0.777771 0.755558 0.770088 0.755558 0.770088 0.752996 0.767115 1 1 0.978031 0.982986 0.978031 0.982986 0.955277 0.962448 0.955277 0.962448 0.933277 0.941006 0.933277 0.941006 0.911999 0.919742 0.911999 0.919742 0.891431 0.899027 0.891431 0.899027 0.871613 0.879013 0.871613 0.879013 0.85263 0.859814 0.85263 0.859814 0.834613 0.841564 0.834613 0.841564 0.81776 0.824457 0.81776 0.824457 0.802358 0.808769 0.802358 0.808769 0.788825 0.794908 0.788825 0.794908 0.777771 0.783474 0.777771 0.783474 0.770088 0.775384 0.770088 0.775384 0.767115 0.772158 1 1 0.982986 0.978031 0.982986 0.978031 0.962448 0.955277 0.962448 0.955277 0.941006 0.933277 0.941006 0.933277 0.919742 0.911999 0.919742 0.911999 0.899027 0.891431 0.899027 0.891431 0.879013 0.871613 0.879013 0.871613 0.859814 0.85263 0.859814 0.85263 0.841564 0.834613 0.841564 0.834613 0.824457 0.817759 0.824457 0.817759 0.808769 0.802357 0.808769 0.802357 0.794908 0.788825 0.794908 0.788825 0.783474 0.777771 0.783474 0.777771 0.775384 0.770088 0.775384 0.770088 0.772158 0.767114 1 1 0.978031 0.960646 0.978031 0.960646 0.955277 0.935588 0.955277 0.935588 0.933277 0.91344 0.933277 0.91344 0.911999 0.892493 0.911999 0.892493 0.891431 0.872378 0.891431 0.872378 0.871613 0.853044 0.871613 0.853044 0.85263 0.834556 0.85263 0.834556 0.834613 0.817047 0.834613 0.817047 0.817759 0.800724 0.817759 0.800724 0.802357 0.785886 0.802357 0.785886 0.788825 0.772963 0.788825 0.772963 0.777771 0.76257 0.777771 0.76257 0.770088 0.755558 0.770088 0.755558 0.767114 0.752995 0 0.234977 0 0.233961 0 0.233961 0 0.231219 0 0.231219 0 0.227377 0 0.227377 0 0.222992 0 0.222992 0 0.218425 0 0.218425 0 0.213889 0 0.213889 0 0.209515 0 0.209515 0 0.205397 0 0.205397 0 0.201624 0 0.201624 0 0.198292 0 0.198292 0 0.195512 0 0.195512 0 0.193401 0 0.193401 0 0.192075 0 0.192075 0 0.191622 0.234977 0.472964 0.233961 0.470377 0.233961 0.470377 0.231219 0.463905 0.231219 0.463905 0.227377 0.455435 0.227377 0.455435 0.222992 0.446189 0.222992 0.446189 0.218425 0.436787 0.218425 0.436787 0.213889 0.427552 0.213889 0.427552 0.209515 0.418679 0.209515 0.418679 0.205397 0.410326 0.205397 0.410326 0.201624 0.402651 0.201624 0.402651 0.198292 0.395838 0.198292 0.395838 0.195512 0.39011 0.195512 0.39011 0.193401 0.385724 0.193401 0.385724 0.192075 0.382947 0.192075 0.382947 0.191622 0.381994 0.472964 0.719486 0.470377 0.712317 0.470377 0.712317 0.463905 0.699079 0.463905 0.699079 0.455435 0.684392 0.455435 0.684392 0.446189 0.669523 0.446189 0.669523 0.436787 0.654893 0.436787 0.654893 0.427552 0.640712 0.427552 0.640712 0.418679 0.627139 0.418679 0.627139 0.410326 0.614341 0.410326 0.614341 0.402651 0.602514 0.402651 0.602514 0.395838 0.591916 0.395838 0.591916 0.39011 0.582883 0.39011 0.582883 0.385724 0.575846 0.385724 0.575846 0.382947 0.571302 0.382947 0.571302 0.381994 0.569718 0.719486 1 0.712317 0.960646 0.712317 0.960646 0.699079 0.935588 0.699079 0.935588 0.684392 0.91344 0.684392 0.91344 0.669523 0.892494 0.669523 0.892494 0.654893 0.872378 0.654893 0.872378 0.640712 0.853044 0.640712 0.853044 0.627139 0.834556 0.627139 0.834556 0.614341 0.817048 0.614341 0.817048 0.602514 0.800725 0.602514 0.800725 0.591916 0.785886 0.591916 0.785886 0.582883 0.772964 0.582883 0.772964 0.575846 0.762571 0.575846 0.762571 0.571302 0.755558 0.571302 0.755558 0.569718 0.752996 
