# vtk DataFile Version 3.0
#This file was generated by the deal.II library on 2026/3/26 at 11:14:21
ASCII
DATASET UNSTRUCTURED_GRID

POINTS 3648 double
0 0 0
0.214286 0 0
0 0.25 0
0.214286 0.25 0
0 0.25 0
0.214286 0.25 0
0 0.5 0
0.214286 0.5 0
0.214286 0 0
0.428571 0 0
0.214286 0.25 0
0.428571 0.25 0
0.214286 0.25 0
0.428571 0.25 0
0.214286 0.5 0
0.428571 0.5 0
0.428571 0 0
0.642857 0 0
0.428571 0.25 0
0.642857 0.25 0
0.428571 0.25 0
0.642857 0.25 0
0.428571 0.5 0
0.642857 0.5 0
0.428571 0.5 0
0.642857 0.5 0
0.428571 0.75 0
0.642857 0.75 0
0.642857 0 0
0.857143 0 0
0.642857 0.25 0
0.857143 0.25 0
0.642857 0.25 0
0.857143 0.25 0
0.642857 0.5 0
0.857143 0.5 0
0.642857 0.5 0
0.857143 0.5 0
0.642857 0.75 0
0.857143 0.75 0
0.857143 0 0
1.07143 0 0
0.857143 0.25 0
1.07143 0.25 0
0.857143 0.25 0
1.07143 0.25 0
0.857143 0.5 0
1.07143 0.5 0
0.857143 0.5 0
1.07143 0.5 0
0.857143 0.75 0
1.07143 0.75 0
1.07143 0 0
1.28571 0 0
1.07143 0.25 0
1.28571 0.25 0
1.07143 0.25 0
1.28571 0.25 0
1.07143 0.5 0
1.28571 0.5 0
1.07143 0.5 0
1.28571 0.5 0
1.07143 0.75 0
1.28571 0.75 0
1.28571 0 0
1.5 0 0
1.28571 0.25 0
1.5 0.25 0
1.28571 0.25 0
1.5 0.25 0
1.28571 0.5 0
1.5 0.5 0
1.5 0 0
1.71429 0 0
1.5 0.25 0
1.71429 0.25 0
1.5 0.25 0
1.71429 0.25 0
1.5 0.5 0
1.71429 0.5 0
1.71429 0 0
1.92857 0 0
1.71429 0.25 0
1.92857 0.25 0
1.71429 0.25 0
1.92857 0.25 0
1.71429 0.5 0
1.92857 0.5 0
1.92857 0 0
2.14286 0 0
1.92857 0.25 0
2.14286 0.25 0
1.92857 0.25 0
2.14286 0.25 0
1.92857 0.5 0
2.14286 0.5 0
0 3 0
0 2.75 0
0.214286 3 0
0.214286 2.75 0
0.214286 3 0
0.214286 2.75 0
0.428571 3 0
0.428571 2.75 0
0.428571 3 0
0.428571 2.75 0
0.642857 3 0
0.642857 2.75 0
0.642857 3 0
0.642857 2.75 0
0.857143 3 0
0.857143 2.75 0
0.857143 3 0
0.857143 2.75 0
1.07143 3 0
1.07143 2.75 0
1.07143 3 0
1.07143 2.75 0
1.28571 3 0
1.28571 2.75 0
1.28571 3 0
1.28571 2.75 0
1.5 3 0
1.5 2.75 0
1.5 3 0
1.5 2.75 0
1.71429 3 0
1.71429 2.75 0
1.71429 3 0
1.71429 2.75 0
1.92857 3 0
1.92857 2.75 0
1.92857 3 0
1.92857 2.75 0
2.14286 3 0
2.14286 2.75 0
0 2.75 0
0 2.5 0
0.214286 2.75 0
0.214286 2.5 0
0.214286 2.75 0
0.214286 2.5 0
0.428571 2.75 0
0.428571 2.5 0
0.428571 2.75 0
0.428571 2.5 0
0.642857 2.75 0
0.642857 2.5 0
0.642857 2.75 0
0.642857 2.5 0
0.857143 2.75 0
0.857143 2.5 0
0.857143 2.75 0
0.857143 2.5 0
1.07143 2.75 0
1.07143 2.5 0
1.07143 2.75 0
1.07143 2.5 0
1.28571 2.75 0
1.28571 2.5 0
1.28571 2.75 0
1.28571 2.5 0
1.5 2.75 0
1.5 2.5 0
1.5 2.75 0
1.5 2.5 0
1.71429 2.75 0
1.71429 2.5 0
1.71429 2.75 0
1.71429 2.5 0
1.92857 2.75 0
1.92857 2.5 0
1.92857 2.75 0
1.92857 2.5 0
2.14286 2.75 0
2.14286 2.5 0
0.428571 2.5 0
0.428571 2.25 0
0.642857 2.5 0
0.642857 2.25 0
0.642857 2.5 0
0.642857 2.25 0
0.857143 2.5 0
0.857143 2.25 0
0.857143 2.5 0
0.857143 2.25 0
1.07143 2.5 0
1.07143 2.25 0
1.07143 2.5 0
1.07143 2.25 0
1.28571 2.5 0
1.28571 2.25 0
0.214286 0.75 0
0.321429 0.75 0
0.214286 0.875 0
0.321429 0.875 0
0.321429 0.75 0
0.428571 0.75 0
0.321429 0.875 0
0.428571 0.875 0
0.214286 0.875 0
0.321429 0.875 0
0.214286 1 0
0.321429 1 0
0.321429 0.875 0
0.428571 0.875 0
0.321429 1 0
0.428571 1 0
0.428571 0.75 0
0.535714 0.75 0
0.428571 0.875 0
0.535714 0.875 0
0.535714 0.75 0
0.642857 0.75 0
0.535714 0.875 0
0.642857 0.875 0
0.428571 0.875 0
0.535714 0.875 0
0.428571 1 0
0.535714 1 0
0.535714 0.875 0
0.642857 0.875 0
0.535714 1 0
0.642857 1 0
0.642857 0.75 0
0.75 0.75 0
0.642857 0.875 0
0.75 0.875 0
0.75 0.75 0
0.857143 0.75 0
0.75 0.875 0
0.857143 0.875 0
0.642857 0.875 0
0.75 0.875 0
0.642857 1 0
0.75 1 0
0.75 0.875 0
0.857143 0.875 0
0.75 1 0
0.857143 1 0
0.857143 0.75 0
0.964286 0.75 0
0.857143 0.875 0
0.964286 0.875 0
0.964286 0.75 0
1.07143 0.75 0
0.964286 0.875 0
1.07143 0.875 0
0.857143 0.875 0
0.964286 0.875 0
0.857143 1 0
0.964286 1 0
0.964286 0.875 0
1.07143 0.875 0
0.964286 1 0
1.07143 1 0
1.07143 0.75 0
1.17857 0.75 0
1.07143 0.875 0
1.17857 0.875 0
1.17857 0.75 0
1.28571 0.75 0
1.17857 0.875 0
1.28571 0.875 0
1.07143 0.875 0
1.17857 0.875 0
1.07143 1 0
1.17857 1 0
1.17857 0.875 0
1.28571 0.875 0
1.17857 1 0
1.28571 1 0
0.214286 2 0
0.214286 1.875 0
0.321429 2 0
0.321429 1.875 0
0.214286 1.875 0
0.214286 1.75 0
0.321429 1.875 0
0.321429 1.75 0
0.321429 2 0
0.321429 1.875 0
0.428571 2 0
0.428571 1.875 0
0.321429 1.875 0
0.321429 1.75 0
0.428571 1.875 0
0.428571 1.75 0
0.428571 2 0
0.428571 1.875 0
0.535714 2 0
0.535714 1.875 0
0.428571 1.875 0
0.428571 1.75 0
0.535714 1.875 0
0.535714 1.75 0
0.535714 2 0
0.535714 1.875 0
0.642857 2 0
0.642857 1.875 0
0.535714 1.875 0
0.535714 1.75 0
0.642857 1.875 0
0.642857 1.75 0
0.642857 2 0
0.642857 1.875 0
0.75 2 0
0.75 1.875 0
0.642857 1.875 0
0.642857 1.75 0
0.75 1.875 0
0.75 1.75 0
0.75 2 0
0.75 1.875 0
0.857143 2 0
0.857143 1.875 0
0.75 1.875 0
0.75 1.75 0
0.857143 1.875 0
0.857143 1.75 0
0.857143 2 0
0.857143 1.875 0
0.964286 2 0
0.964286 1.875 0
0.857143 1.875 0
0.857143 1.75 0
0.964286 1.875 0
0.964286 1.75 0
0.964286 2 0
0.964286 1.875 0
1.07143 2 0
1.07143 1.875 0
0.964286 1.875 0
0.964286 1.75 0
1.07143 1.875 0
1.07143 1.75 0
1.07143 2 0
1.07143 1.875 0
1.17857 2 0
1.17857 1.875 0
1.07143 1.875 0
1.07143 1.75 0
1.17857 1.875 0
1.17857 1.75 0
1.17857 2 0
1.17857 1.875 0
1.28571 2 0
1.28571 1.875 0
1.17857 1.875 0
1.17857 1.75 0
1.28571 1.875 0
1.28571 1.75 0
0.214286 1.25 0
0.214286 1.125 0
0.321429 1.25 0
0.321429 1.125 0
0.214286 1.125 0
0.214286 1 0
0.321429 1.125 0
0.321429 1 0
0.321429 1.25 0
0.321429 1.125 0
0.428571 1.25 0
0.428571 1.125 0
0.321429 1.125 0
0.321429 1 0
0.428571 1.125 0
0.428571 1 0
0.428571 1.25 0
0.428571 1.125 0
0.535714 1.25 0
0.535714 1.125 0
0.428571 1.125 0
0.428571 1 0
0.535714 1.125 0
0.535714 1 0
0.535714 1.25 0
0.535714 1.125 0
0.642857 1.25 0
0.642857 1.125 0
0.535714 1.125 0
0.535714 1 0
0.642857 1.125 0
0.642857 1 0
0.642857 1.25 0
0.642857 1.125 0
0.75 1.25 0
0.75 1.125 0
0.642857 1.125 0
0.642857 1 0
0.75 1.125 0
0.75 1 0
0.75 1.25 0
0.75 1.125 0
0.857143 1.25 0
0.857143 1.125 0
0.75 1.125 0
0.75 1 0
0.857143 1.125 0
0.857143 1 0
0.857143 1.25 0
0.857143 1.125 0
0.964286 1.25 0
0.964286 1.125 0
0.857143 1.125 0
0.857143 1 0
0.964286 1.125 0
0.964286 1 0
0.964286 1.25 0
0.964286 1.125 0
1.07143 1.25 0
1.07143 1.125 0
0.964286 1.125 0
0.964286 1 0
1.07143 1.125 0
1.07143 1 0
1.07143 1.25 0
1.07143 1.125 0
1.17857 1.25 0
1.17857 1.125 0
1.07143 1.125 0
1.07143 1 0
1.17857 1.125 0
1.17857 1 0
1.17857 1.25 0
1.17857 1.125 0
1.28571 1.25 0
1.28571 1.125 0
1.17857 1.125 0
1.17857 1 0
1.28571 1.125 0
1.28571 1 0
0.214286 2.25 0
0.214286 2.125 0
0.321429 2.25 0
0.321429 2.125 0
0.214286 2.125 0
0.214286 2 0
0.321429 2.125 0
0.321429 2 0
0.321429 2.25 0
0.321429 2.125 0
0.428571 2.25 0
0.428571 2.125 0
0.321429 2.125 0
0.321429 2 0
0.428571 2.125 0
0.428571 2 0
0.428571 2.25 0
0.428571 2.125 0
0.535714 2.25 0
0.535714 2.125 0
0.428571 2.125 0
0.428571 2 0
0.535714 2.125 0
0.535714 2 0
0.535714 2.25 0
0.535714 2.125 0
0.642857 2.25 0
0.642857 2.125 0
0.535714 2.125 0
0.535714 2 0
0.642857 2.125 0
0.642857 2 0
0.642857 2.25 0
0.642857 2.125 0
0.75 2.25 0
0.75 2.125 0
0.642857 2.125 0
0.642857 2 0
0.75 2.125 0
0.75 2 0
0.75 2.25 0
0.75 2.125 0
0.857143 2.25 0
0.857143 2.125 0
0.75 2.125 0
0.75 2 0
0.857143 2.125 0
0.857143 2 0
0.857143 2.25 0
0.857143 2.125 0
0.964286 2.25 0
0.964286 2.125 0
0.857143 2.125 0
0.857143 2 0
0.964286 2.125 0
0.964286 2 0
0.964286 2.25 0
0.964286 2.125 0
1.07143 2.25 0
1.07143 2.125 0
0.964286 2.125 0
0.964286 2 0
1.07143 2.125 0
1.07143 2 0
1.07143 2.25 0
1.07143 2.125 0
1.17857 2.25 0
1.17857 2.125 0
1.07143 2.125 0
1.07143 2 0
1.17857 2.125 0
1.17857 2 0
1.17857 2.25 0
1.17857 2.125 0
1.28571 2.25 0
1.28571 2.125 0
1.17857 2.125 0
1.17857 2 0
1.28571 2.125 0
1.28571 2 0
0 0.5 0
0.107143 0.5 0
0 0.625 0
0.107143 0.625 0
0.107143 0.5 0
0.214286 0.5 0
0.107143 0.625 0
0.214286 0.625 0
0 0.625 0
0.107143 0.625 0
0 0.75 0
0.107143 0.75 0
0.107143 0.625 0
0.214286 0.625 0
0.107143 0.75 0
0.214286 0.75 0
0.214286 0.5 0
0.321429 0.5 0
0.214286 0.625 0
0.321429 0.625 0
0.321429 0.5 0
0.428571 0.5 0
0.321429 0.625 0
0.428571 0.625 0
0.214286 0.625 0
0.321429 0.625 0
0.214286 0.75 0
0.321429 0.75 0
0.321429 0.625 0
0.428571 0.625 0
0.321429 0.75 0
0.428571 0.75 0
1.28571 0.5 0
1.39286 0.5 0
1.28571 0.625 0
1.39286 0.625 0
1.39286 0.5 0
1.5 0.5 0
1.39286 0.625 0
1.5 0.625 0
1.28571 0.625 0
1.39286 0.625 0
1.28571 0.75 0
1.39286 0.75 0
1.39286 0.625 0
1.5 0.625 0
1.39286 0.75 0
1.5 0.75 0
1.28571 0.75 0
1.39286 0.75 0
1.28571 0.875 0
1.39286 0.875 0
1.39286 0.75 0
1.5 0.75 0
1.39286 0.875 0
1.5 0.875 0
1.28571 0.875 0
1.39286 0.875 0
1.28571 1 0
1.39286 1 0
1.39286 0.875 0
1.5 0.875 0
1.39286 1 0
1.5 1 0
1.5 0.5 0
1.60714 0.5 0
1.5 0.625 0
1.60714 0.625 0
1.60714 0.5 0
1.71429 0.5 0
1.60714 0.625 0
1.71429 0.625 0
1.5 0.625 0
1.60714 0.625 0
1.5 0.75 0
1.60714 0.75 0
1.60714 0.625 0
1.71429 0.625 0
1.60714 0.75 0
1.71429 0.75 0
1.71429 0.5 0
1.82143 0.5 0
1.71429 0.625 0
1.82143 0.625 0
1.82143 0.5 0
1.92857 0.5 0
1.82143 0.625 0
1.92857 0.625 0
1.71429 0.625 0
1.82143 0.625 0
1.71429 0.75 0
1.82143 0.75 0
1.82143 0.625 0
1.92857 0.625 0
1.82143 0.75 0
1.92857 0.75 0
1.92857 0.5 0
2.03571 0.5 0
1.92857 0.625 0
2.03571 0.625 0
2.03571 0.5 0
2.14286 0.5 0
2.03571 0.625 0
2.14286 0.625 0
1.92857 0.625 0
2.03571 0.625 0
1.92857 0.75 0
2.03571 0.75 0
2.03571 0.625 0
2.14286 0.625 0
2.03571 0.75 0
2.14286 0.75 0
2.14286 0 0
2.25 0 0
2.14286 0.125 0
2.25 0.125 0
2.25 0 0
2.35714 0 0
2.25 0.125 0
2.35714 0.125 0
2.14286 0.125 0
2.25 0.125 0
2.14286 0.25 0
2.25 0.25 0
2.25 0.125 0
2.35714 0.125 0
2.25 0.25 0
2.35714 0.25 0
2.14286 0.25 0
2.25 0.25 0
2.14286 0.375 0
2.25 0.375 0
2.25 0.25 0
2.35714 0.25 0
2.25 0.375 0
2.35714 0.375 0
2.14286 0.375 0
2.25 0.375 0
2.14286 0.5 0
2.25 0.5 0
2.25 0.375 0
2.35714 0.375 0
2.25 0.5 0
2.35714 0.5 0
2.14286 0.5 0
2.25 0.5 0
2.14286 0.625 0
2.25 0.625 0
2.25 0.5 0
2.35714 0.5 0
2.25 0.625 0
2.35714 0.625 0
2.14286 0.625 0
2.25 0.625 0
2.14286 0.75 0
2.25 0.75 0
2.25 0.625 0
2.35714 0.625 0
2.25 0.75 0
2.35714 0.75 0
2.35714 0 0
2.46429 0 0
[...]
POINT_DATA 3648
VECTORS velocity double
0 0 0
0 0 0
0 0 0
-0.0102044 0.0114778 0
0 0 0
-0.0102044 0.0114778 0
0 0 0
-0.00288565 0.0269808 0
0 0 0
0 0 0
-0.0102044 0.0114778 0
-0.0335563 0.0152872 0
-0.0102044 0.0114778 0
-0.0335563 0.0152872 0
-0.00288565 0.0269808 0
-0.00399711 0.0285515 0
0 0 0
0 0 0
-0.0335563 0.0152872 0
-0.0554562 0.0102838 0
-0.0335563 0.0152872 0
-0.0554562 0.0102838 0
-0.00399711 0.0285515 0
-0.00541535 0.0244039 0
-0.00399711 0.0285515 0
-0.00541535 0.0244039 0
0.0213721 0.0192185 0
0.0399796 0.0137423 0
0 0 0
0 0 0
-0.0554562 0.0102838 0
-0.0643863 0.000267086 0
-0.0554562 0.0102838 0
-0.0643863 0.000267086 0
-0.00541535 0.0244039 0
0.00199542 -0.0127767 0
-0.00541535 0.0244039 0
0.00199542 -0.0127767 0
0.0399796 0.0137423 0
0.0385407 -0.0091087 0
0 0 0
0 0 0
-0.0643863 0.000267086 0
-0.0508299 -0.0162691 0
-0.0643863 0.000267086 0
-0.0508299 -0.0162691 0
0.00199542 -0.0127767 0
0.00163897 -0.0184289 0
0.00199542 -0.0127767 0
0.00163897 -0.0184289 0
0.0385407 -0.0091087 0
0.0232992 -0.00387801 0
0 0 0
0 0 0
-0.0508299 -0.0162691 0
0.000902671 -0.0461825 0
-0.0508299 -0.0162691 0
0.000902671 -0.0461825 0
0.00163897 -0.0184289 0
-0.0331889 -0.0632938 0
0.00163897 -0.0184289 0
-0.0331889 -0.0632938 0
0.0232992 -0.00387801 0
0.018766 -0.0320237 0
0 0 0
0 0 0
0.000902671 -0.0461825 0
0.0741844 -0.0395505 0
0.000902671 -0.0461825 0
0.0741844 -0.0395505 0
-0.0331889 -0.0632938 0
-0.0584038 -0.0766955 0
0 0 0
0 0 0
0.0741844 -0.0395505 0
0.0809105 0.0325879 0
0.0741844 -0.0395505 0
0.0809105 0.0325879 0
-0.0584038 -0.0766955 0
-0.0581472 0.0571624 0
0 0 0
0 0 0
0.0809105 0.0325879 0
0.0351855 0.0209271 0
0.0809105 0.0325879 0
0.0351855 0.0209271 0
-0.0581472 0.0571624 0
-0.0516911 0.043682 0
0 0 0
0 0 0
0.0351855 0.0209271 0
-0.00670992 0.0262967 0
0.0351855 0.0209271 0
-0.00670992 0.0262967 0
-0.0516911 0.043682 0
-0.0146026 0.00854368 0
0 0 0
0 0 0
0 0 0
-0.0102064 -0.0114799 0
0 0 0
-0.0102064 -0.0114799 0
0 0 0
-0.0335541 -0.0152805 0
0 0 0
-0.0335541 -0.0152805 0
0 0 0
-0.0554454 -0.0102806 0
0 0 0
-0.0554454 -0.0102806 0
0 0 0
-0.0643755 -0.000270373 0
0 0 0
-0.0643755 -0.000270373 0
0 0 0
-0.0508293 0.0162603 0
0 0 0
-0.0508293 0.0162603 0
0 0 0
0.00088734 0.0461725 0
0 0 0
0.00088734 0.0461725 0
0 0 0
0.0742288 0.0396322 0
0 0 0
0.0742288 0.0396322 0
0 0 0
0.0809742 -0.0326509 0
0 0 0
0.0809742 -0.0326509 0
0 0 0
0.0351898 -0.020932 0
0 0 0
0.0351898 -0.020932 0
0 0 0
-0.00670622 -0.0262939 0
0 0 0
0 0 0
-0.0102064 -0.0114799 0
-0.00288162 -0.0269799 0
-0.0102064 -0.0114799 0
-0.00288162 -0.0269799 0
-0.0335541 -0.0152805 0
-0.0039906 -0.0285396 0
-0.0335541 -0.0152805 0
-0.0039906 -0.0285396 0
-0.0554454 -0.0102806 0
-0.00540584 -0.0243911 0
-0.0554454 -0.0102806 0
-0.00540584 -0.0243911 0
-0.0643755 -0.000270373 0
0.00200403 0.0127633 0
-0.0643755 -0.000270373 0
0.00200403 0.0127633 0
-0.0508293 0.0162603 0
0.0016466 0.0184193 0
-0.0508293 0.0162603 0
0.0016466 0.0184193 0
0.00088734 0.0461725 0
-0.0331662 0.0632841 0
0.00088734 0.0461725 0
-0.0331662 0.0632841 0
0.0742288 0.0396322 0
-0.0584654 0.0767485 0
0.0742288 0.0396322 0
-0.0584654 0.0767485 0
0.0809742 -0.0326509 0
-0.0582146 -0.0571863 0
0.0809742 -0.0326509 0
-0.0582146 -0.0571863 0
0.0351898 -0.020932 0
-0.0516858 -0.0437067 0
0.0351898 -0.020932 0
-0.0516858 -0.0437067 0
-0.00670622 -0.0262939 0
-0.0146058 -0.0085332 0
-0.0039906 -0.0285396 0
0.0213699 -0.0192112 0
-0.00540584 -0.0243911 0
0.0399662 -0.0137355 0
-0.00540584 -0.0243911 0
0.0399662 -0.0137355 0
0.00200403 0.0127633 0
0.038529 0.00910141 0
0.00200403 0.0127633 0
0.038529 0.00910141 0
0.0016466 0.0184193 0
0.0232995 0.00387405 0
0.0016466 0.0184193 0
0.0232995 0.00387405 0
-0.0331662 0.0632841 0
0.0187606 0.032018 0
0.00634956 0.0216345 0
0.014957 0.0196236 0
0.00579007 0.0124157 0
0.0119928 0.0115502 0
0.014957 0.0196236 0
0.0213721 0.0192185 0
0.0119928 0.0115502 0
0.0203404 0.010291 0
0.00579007 0.0124157 0
0.0119928 0.0115502 0
0.0495594 -0.00292145 0
0.0703455 -0.00385266 0
0.0119928 0.0115502 0
0.0203404 0.010291 0
0.0703455 -0.00385266 0
0.0881687 -0.00450294 0
0.0213721 0.0192185 0
0.0290211 0.0162412 0
0.0203404 0.010291 0
0.0280391 0.00763855 0
0.0290211 0.0162412 0
0.0399796 0.0137423 0
0.0280391 0.00763855 0
0.0330522 0.00416953 0
0.0203404 0.010291 0
0.0280391 0.00763855 0
0.0881687 -0.00450294 0
0.103691 -0.00472077 0
0.0280391 0.00763855 0
0.0330522 0.00416953 0
0.103691 -0.00472077 0
0.117333 -0.0055602 0
0.0399796 0.0137423 0
0.0459513 0.00287927 0
0.0330522 0.00416953 0
0.0362603 0.00238416 0
0.0459513 0.00287927 0
0.0385407 -0.0091087 0
0.0362603 0.00238416 0
0.0377021 -0.000949766 0
0.0330522 0.00416953 0
0.0362603 0.00238416 0
0.117333 -0.0055602 0
0.12938 -0.00620177 0
0.0362603 0.00238416 0
0.0377021 -0.000949766 0
0.12938 -0.00620177 0
0.140073 -0.00712147 0
0.0385407 -0.0091087 0
0.0276485 -0.00684723 0
0.0377021 -0.000949766 0
0.0379274 -0.00187757 0
0.0276485 -0.00684723 0
0.0232992 -0.00387801 0
0.0379274 -0.00187757 0
0.038534 -0.00385771 0
0.0377021 -0.000949766 0
0.0379274 -0.00187757 0
0.140073 -0.00712147 0
0.149575 -0.00786085 0
0.0379274 -0.00187757 0
0.038534 -0.00385771 0
0.149575 -0.00786085 0
0.1578 -0.00895503 0
0.0232992 -0.00387801 0
0.0216448 -0.0177206 0
0.038534 -0.00385771 0
0.0344049 -0.0103818 0
0.0216448 -0.0177206 0
0.018766 -0.0320237 0
0.0344049 -0.0103818 0
0.0185763 -0.0172659 0
0.038534 -0.00385771 0
0.0344049 -0.0103818 0
0.1578 -0.00895503 0
0.164662 -0.0092291 0
0.0344049 -0.0103818 0
0.0185763 -0.0172659 0
0.164662 -0.0092291 0
0.170739 -0.00722444 0
0.049566 0.00292255 0
0.244261 0.0127154 0
0.0703546 0.00385457 0
0.239086 0.0119614 0
0.244261 0.0127154 0
0.183151 0.00533384 0
0.239086 0.0119614 0
0.17592 0.00498273 0
0.0703546 0.00385457 0
0.239086 0.0119614 0
0.0881802 0.00450491 0
0.234187 0.010912 0
0.239086 0.0119614 0
0.17592 0.00498273 0
0.234187 0.010912 0
0.169319 0.0046431 0
0.0881802 0.00450491 0
0.234187 0.010912 0
0.103704 0.00472307 0
0.22952 0.0102403 0
0.234187 0.010912 0
0.169319 0.0046431 0
0.22952 0.0102403 0
0.163334 0.00432148 0
0.103704 0.00472307 0
0.22952 0.0102403 0
0.117347 0.00556232 0
0.224975 0.00975718 0
0.22952 0.0102403 0
0.163334 0.00432148 0
0.224975 0.00975718 0
0.157859 0.00429361 0
0.117347 0.00556232 0
0.224975 0.00975718 0
0.129396 0.00620306 0
0.22043 0.00968645 0
0.224975 0.00975718 0
0.157859 0.00429361 0
0.22043 0.00968645 0
0.152793 0.00421625 0
0.129396 0.00620306 0
0.22043 0.00968645 0
0.140089 0.00712237 0
0.215767 0.00952239 0
0.22043 0.00968645 0
0.152793 0.00421625 0
0.215767 0.00952239 0
0.148028 0.00431461 0
0.140089 0.00712237 0
0.215767 0.00952239 0
0.149592 0.00786128 0
0.210855 0.00971284 0
0.215767 0.00952239 0
0.148028 0.00431461 0
0.210855 0.00971284 0
0.143507 0.00421969 0
0.149592 0.00786128 0
0.210855 0.00971284 0
0.157816 0.00895483 0
0.205615 0.00954791 0
0.210855 0.00971284 0
0.143507 0.00421969 0
0.205615 0.00954791 0
0.13925 0.00423968 0
0.157816 0.00895483 0
0.205615 0.00954791 0
0.164679 0.00922844 0
0.200076 0.00920792 0
0.205615 0.00954791 0
0.13925 0.00423968 0
0.200076 0.00920792 0
0.135401 0.00367813 0
0.164679 0.00922844 0
0.200076 0.00920792 0
0.170754 0.007224 0
0.194582 0.00707739 0
0.200076 0.00920792 0
0.135401 0.00367813 0
0.194582 0.00707739 0
0.132324 0.00270828 0
0.183183 -0.00533417 0
0.244258 -0.0127142 0
0.175952 -0.00498291 0
0.239087 -0.0119599 0
0.244258 -0.0127142 0
0.0495594 -0.00292145 0
0.239087 -0.0119599 0
0.0703455 -0.00385266 0
0.175952 -0.00498291 0
0.239087 -0.0119599 0
0.169351 -0.00464322 0
0.23419 -0.0109106 0
0.239087 -0.0119599 0
0.0703455 -0.00385266 0
0.23419 -0.0109106 0
0.0881687 -0.00450294 0
0.169351 -0.00464322 0
0.23419 -0.0109106 0
0.163366 -0.00432179 0
0.229526 -0.0102391 0
0.23419 -0.0109106 0
0.0881687 -0.00450294 0
0.229526 -0.0102391 0
0.103691 -0.00472077 0
0.163366 -0.00432179 0
0.229526 -0.0102391 0
0.15789 -0.00429403 0
0.224984 -0.00975645 0
0.229526 -0.0102391 0
0.103691 -0.00472077 0
0.224984 -0.00975645 0
0.117333 -0.0055602 0
0.15789 -0.00429403 0
0.224984 -0.00975645 0
0.152824 -0.00421703 0
0.220442 -0.00968623 0
0.224984 -0.00975645 0
0.117333 -0.0055602 0
0.220442 -0.00968623 0
0.12938 -0.00620177 0
0.152824 -0.00421703 0
0.220442 -0.00968623 0
0.148059 -0.00431545 0
0.215781 -0.00952273 0
0.220442 -0.00968623 0
0.12938 -0.00620177 0
0.215781 -0.00952273 0
0.140073 -0.00712147 0
0.148059 -0.00431545 0
0.215781 -0.00952273 0
0.143536 -0.00422105 0
0.210871 -0.00971376 0
0.215781 -0.00952273 0
0.140073 -0.00712147 0
0.210871 -0.00971376 0
0.149575 -0.00786085 0
0.143536 -0.00422105 0
0.210871 -0.00971376 0
0.139278 -0.00424104 0
0.205634 -0.00954942 0
0.210871 -0.00971376 0
0.149575 -0.00786085 0
0.205634 -0.00954942 0
0.1578 -0.00895503 0
0.139278 -0.00424104 0
0.205634 -0.00954942 0
0.135427 -0.00367974 0
0.200096 -0.00920956 0
0.205634 -0.00954942 0
0.1578 -0.00895503 0
0.200096 -0.00920956 0
0.164662 -0.0092291 0
0.135427 -0.00367974 0
0.200096 -0.00920956 0
0.132349 -0.00270939 0
0.194603 -0.00707899 0
0.200096 -0.00920956 0
0.164662 -0.0092291 0
0.194603 -0.00707899 0
0.170739 -0.00722444 0
0.00634824 -0.0216295 0
0.00578623 -0.0124123 0
0.0149565 -0.0196245 0
0.0119866 -0.0115509 0
0.00578623 -0.0124123 0
0.049566 0.00292255 0
0.0119866 -0.0115509 0
0.0703546 0.00385457 0
0.0149565 -0.0196245 0
0.0119866 -0.0115509 0
0.0213699 -0.0192112 0
0.0203328 -0.0102875 0
0.0119866 -0.0115509 0
0.0703546 0.00385457 0
0.0203328 -0.0102875 0
0.0881802 0.00450491 0
0.0213699 -0.0192112 0
0.0203328 -0.0102875 0
0.0290154 -0.0162343 0
0.028028 -0.00763606 0
0.0203328 -0.0102875 0
0.0881802 0.00450491 0
0.028028 -0.00763606 0
0.103704 0.00472307 0
0.0290154 -0.0162343 0
0.028028 -0.00763606 0
0.0399662 -0.0137355 0
0.0330403 -0.00416819 0
0.028028 -0.00763606 0
0.103704 0.00472307 0
0.0330403 -0.00416819 0
0.117347 0.00556232 0
0.0399662 -0.0137355 0
0.0330403 -0.00416819 0
0.0459334 -0.00287868 0
0.0362484 -0.00238342 0
0.0330403 -0.00416819 0
0.117347 0.00556232 0
0.0362484 -0.00238342 0
0.129396 0.00620306 0
0.0459334 -0.00287868 0
0.0362484 -0.00238342 0
0.038529 0.00910141 0
0.0376903 0.000949882 0
0.0362484 -0.00238342 0
0.129396 0.00620306 0
0.0376903 0.000949882 0
0.140089 0.00712237 0
0.038529 0.00910141 0
0.0376903 0.000949882 0
0.0276458 0.00684062 0
0.0379173 0.0018762 0
0.0376903 0.000949882 0
0.140089 0.00712237 0
0.0379173 0.0018762 0
0.149592 0.00786128 0
0.0276458 0.00684062 0
0.0379173 0.0018762 0
0.0232995 0.00387405 0
0.0385269 0.00385589 0
0.0379173 0.0018762 0
0.149592 0.00786128 0
0.0385269 0.00385589 0
0.157816 0.00895483 0
0.0232995 0.00387405 0
0.0385269 0.00385589 0
0.0216437 0.0177159 0
0.0344018 0.0103785 0
0.0385269 0.00385589 0
0.157816 0.00895483 0
0.0344018 0.0103785 0
0.164679 0.00922844 0
0.0216437 0.0177159 0
0.0344018 0.0103785 0
0.0187606 0.032018 0
0.0185794 0.0172618 0
0.0344018 0.0103785 0
0.164679 0.00922844 0
0.0185794 0.0172618 0
0.170754 0.007224 0
0 0 0
-0.000678496 0.0136302 0
0 0 0
2.02135e-05 0.0145211 0
-0.000678496 0.0136302 0
-0.00288565 0.0269808 0
2.02135e-05 0.0145211 0
0.000524707 0.0281604 0
0 0 0
2.02135e-05 0.0145211 0
0 0 0
0.000606253 0.0139662 0
2.02135e-05 0.0145211 0
0.000524707 0.0281604 0
0.000606253 0.0139662 0
0.00634956 0.0216345 0
-0.00288565 0.0269808 0
-0.00468464 0.0278928 0
0.000524707 0.0281604 0
0.0030813 0.0259815 0
-0.00468464 0.0278928 0
-0.00399711 0.0285515 0
0.0030813 0.0259815 0
0.00716831 0.0250625 0
0.000524707 0.0281604 0
0.0030813 0.0259815 0
0.00634956 0.0216345 0
0.014957 0.0196236 0
0.0030813 0.0259815 0
0.00716831 0.0250625 0
0.014957 0.0196236 0
0.0213721 0.0192185 0
-0.0331889 -0.0632938 0
-0.0507041 -0.0722521 0
-0.00869601 -0.0419169 0
-0.0393901 -0.0372617 0
-0.0507041 -0.0722521 0
-0.0584038 -0.0766955 0
-0.0393901 -0.0372617 0
-0.0821674 -0.0517778 0
-0.00869601 -0.0419169 0
-0.0393901 -0.0372617 0
0.018766 -0.0320237 0
-0.00553193 0.0170844 0
-0.0393901 -0.0372617 0
-0.0821674 -0.0517778 0
-0.00553193 0.0170844 0
-0.0445428 -0.0113682 0
0.018766 -0.0320237 0
-0.00553193 0.0170844 0
0.0185763 -0.0172659 0
0.0274075 0.0205763 0
-0.00553193 0.0170844 0
-0.0445428 -0.0113682 0
0.0274075 0.0205763 0
0.0505468 0.00339789 0
0.0185763 -0.0172659 0
0.0274075 0.0205763 0
0.170739 -0.00722444 0
0.174614 -0.00451689 0
0.0274075 0.0205763 0
0.0505468 0.00339789 0
0.174614 -0.00451689 0
0.17784 -0.00274549 0
-0.0584038 -0.0766955 0
-0.0606058 -0.00656375 0
-0.0821674 -0.0517778 0
-0.0977275 -0.00966305 0
-0.0606058 -0.00656375 0
-0.0581472 0.0571624 0
-0.0977275 -0.00966305 0
-0.074731 0.0303472 0
-0.0821674 -0.0517778 0
-0.0977275 -0.00966305 0
-0.0445428 -0.0113682 0
-0.0498585 -0.0249989 0
-0.0977275 -0.00966305 0
-0.074731 0.0303472 0
-0.0498585 -0.0249989 0
-0.0469916 0.0149803 0
-0.0581472 0.0571624 0
-0.053304 0.0490474 0
-0.074731 0.0303472 0
-0.0498267 0.0410389 0
-0.053304 0.0490474 0
-0.0516911 0.043682 0
-0.0498267 0.0410389 0
-0.0312777 0.0280859 0
-0.074731 0.0303472 0
-0.0498267 0.0410389 0
-0.0469916 0.0149803 0
-0.0405519 0.0203879 0
-0.0498267 0.0410389 0
-0.0312777 0.0280859 0
-0.0405519 0.0203879 0
-0.0202324 0.00345095 0
-0.0516911 0.043682 0
-0.0428852 0.0274279 0
-0.0312777 0.0280859 0
-0.000318425 -0.00378851 0
-0.0428852 0.0274279 0
-0.0146026 0.00854368 0
-0.000318425 -0.00378851 0
0.0118524 -0.0081983 0
-0.0312777 0.0280859 0
-0.000318425 -0.00378851 0
-0.0202324 0.00345095 0
-0.0231092 -0.0114722 0
-0.000318425 -0.00378851 0
0.0118524 -0.0081983 0
-0.0231092 -0.0114722 0
-0.0322027 -0.00363612 0
0 0 0
0 0 0
-0.00116398 0.00648877 0
-0.0431672 0.0423004 0
0 0 0
0 0 0
-0.0431672 0.0423004 0
-0.0430637 -0.0412208 0
-0.00116398 0.00648877 0
-0.0431672 0.0423004 0
-0.00670992 0.0262967 0
0.0182462 0.042447 0
-0.0431672 0.0423004 0
-0.0430637 -0.0412208 0
0.0182462 0.042447 0
0.0146295 -0.0366359 0
-0.00670992 0.0262967 0
0.0182462 0.042447 0
-0.0107679 0.0352318 0
0.0119372 -0.0207401 0
0.0182462 0.042447 0
0.0146295 -0.0366359 0
0.0119372 -0.0207401 0
0.00475068 0.0381825 0
-0.0107679 0.0352318 0
0.0119372 -0.0207401 0
-0.0146026 0.00854368 0
-0.00392251 -0.0307597 0
0.0119372 -0.0207401 0
0.00475068 0.0381825 0
-0.00392251 -0.0307597 0
-0.0159585 0.0694138 0
-0.0146026 0.00854368 0
-0.00392251 -0.0307597 0
0.0118524 -0.0081983 0
-0.0187171 0.00847626 0
-0.00392251 -0.0307597 0
-0.0159585 0.0694138 0
-0.0187171 0.00847626 0
-0.0291061 0.0557102 0
0.0118524 -0.0081983 0
-0.0187171 0.00847626 0
-0.0322027 -0.00363612 0
-0.0168492 0.0216597 0
-0.0187171 0.00847626 0
-0.0291061 0.0557102 0
-0.0168492 0.0216597 0
0.00554992 0.028851 0
0 0 0
0 0 0
-0.0430637 -0.0412208 0
-0.0204551 0.0137166 0
0 0 0
0 0 0
-0.0204551 0.0137166 0
-0.0257169 -0.00666474 0
-0.0430637 -0.0412208 0
-0.0204551 0.0137166 0
0.0146295 -0.0366359 0
-0.0312409 0.0352751 0
-0.0204551 0.0137166 0
-0.0257169 -0.00666474 0
-0.0312409 0.0352751 0
-0.0431102 -0.0066775 0
0.0146295 -0.0366359 0
-0.0312409 0.0352751 0
0.00475068 0.0381825 0
-0.0204963 0.0436869 0
-0.0312409 0.0352751 0
-0.0431102 -0.0066775 0
-0.0204963 0.0436869 0
-0.0210446 1.90865e-05 0
0.00475068 0.0381825 0
-0.0204963 0.0436869 0
-0.0159585 0.0694138 0
-0.00315638 0.0268231 0
-0.0204963 0.0436869 0
-0.0210446 1.90865e-05 0
-0.00315638 0.0268231 0
0.0187362 -0.00803338 0
-0.0159585 0.0694138 0
-0.00315638 0.0268231 0
-0.0291061 0.0557102 0
-0.0150823 0.00919796 0
-0.00315638 0.0268231 0
0.0187362 -0.00803338 0
-0.0150823 0.00919796 0
-0.0084164 -0.023656 0
-0.0291061 0.0557102 0
-0.0150823 0.00919796 0
0.00554992 0.028851 0
0.0171926 0.00572512 0
-0.0150823 0.00919796 0
-0.0084164 -0.023656 0
0.0171926 0.00572512 0
0.000682459 -0.00885229 0
0 0 0
0 0 0
-0.0257169 -0.00666474 0
-0.0176994 -0.00321064 0
0 0 0
0 0 0
-0.0176994 -0.00321064 0
-0.00320807 -0.0134825 0
-0.0257169 -0.00666474 0
-0.0176994 -0.00321064 0
-0.0431102 -0.0066775 0
-0.0391597 -0.0176732 0
-0.0176994 -0.00321064 0
-0.00320807 -0.0134825 0
-0.0391597 -0.0176732 0
-0.0256489 -0.031315 0
-0.0431102 -0.0066775 0
-0.0391597 -0.0176732 0
-0.0210446 1.90865e-05 0
-0.0269708 -0.022115 0
-0.0391597 -0.0176732 0
-0.0256489 -0.031315 0
-0.0269708 -0.022115 0
-0.0283973 -0.0411732 0
-0.0210446 1.90865e-05 0
-0.0269708 -0.022115 0
0.0187362 -0.00803338 0
0.0127104 -0.000221863 0
-0.0269708 -0.022115 0
-0.0283973 -0.0411732 0
0.0127104 -0.000221863 0
-0.0117316 -0.0330361 0
0.0187362 -0.00803338 0
0.0127104 -0.000221863 0
-0.0084164 -0.023656 0
-0.00315032 0.016374 0
0.0127104 -0.000221863 0
-0.0117316 -0.0330361 0
-0.00315032 0.016374 0
-0.00377394 -0.0206059 0
-0.0084164 -0.023656 0
-0.00315032 0.016374 0
0.000682459 -0.00885229 0
0.00578054 -0.0110717 0
-0.00315032 0.016374 0
-0.00377394 -0.0206059 0
0.00578054 -0.0110717 0
0.00765702 0.00513957 0
0 0 0
0 0 0
-0.00320807 -0.0134825 0
0.00427443 0.00473012 0
0 0 0
0 0 0
0.00427443 0.00473012 0
0 0 0
-0.00320807 -0.0134825 0
0.00427443 0.00473012 0
-0.0256489 -0.031315 0
-0.0107884 -0.00326417 0
0.00427443 0.00473012 0
0 0 0
-0.0107884 -0.00326417 0
0 0 0
-0.0256489 -0.031315 0
-0.0107884 -0.00326417 0
-0.0283973 -0.0411732 0
-0.011755 -0.0302119 0
-0.0107884 -0.00326417 0
0 0 0
-0.011755 -0.0302119 0
0 0 0
-0.0283973 -0.0411732 0
-0.011755 -0.0302119 0
-0.0117316 -0.0330361 0
-0.0114679 -0.0578 0
-0.011755 -0.0302119 0
0 0 0
-0.0114679 -0.0578 0
0 0 0
-0.0117316 -0.0330361 0
-0.0114679 -0.0578 0
-0.00377394 -0.0206059 0
-0.00153949 -0.0734041 0
-0.0114679 -0.0578 0
0 0 0
-0.00153949 -0.0734041 0
0 0 0
-0.00377394 -0.0206059 0
-0.00153949 -0.0734041 0
0.00765702 0.00513957 0
-0.00795647 -0.0847075 0
-0.00153949 -0.0734041 0
0 0 0
-0.00795647 -0.0847075 0
0 0 0
0.170754 0.007224 0
0.194582 0.00707739 0
0.174628 0.00451642 0
0.190926 0.00462422 0
0.194582 0.00707739 0
0.132324 0.00270828 0
0.190926 0.00462422 0
0.129813 0.00194374 0
0.174628 0.00451642 0
0.190926 0.00462422 0
0.177853 0.00274545 0
0.188635 0.00321115 0
0.190926 0.00462422 0
0.129813 0.00194374 0
0.188635 0.00321115 0
0.127961 0.00105987 0
0.199327 0.00556107 0
0.0488181 0.00533477 0
0.190848 0.00546381 0
0.0568283 0.00520274 0
0.0488181 0.00533477 0
0.278069 1.8793e-07 0
0.0568283 0.00520274 0
0.261084 1.55348e-07 0
0.190848 0.00546381 0
0.0568283 0.00520274 0
0.183151 0.00533384 0
0.0637681 0.00483514 0
0.0568283 0.00520274 0
0.261084 1.55348e-07 0
0.0637681 0.00483514 0
0.245695 8.82619e-08 0
0.183151 0.00533384 0
0.0637681 0.00483514 0
0.17592 0.00498273 0
0.0700231 0.00459158 0
0.0637681 0.00483514 0
0.245695 8.82619e-08 0
0.0700231 0.00459158 0
0.231587 5.45021e-08 0
0.17592 0.00498273 0
0.0700231 0.00459158 0
0.169319 0.0046431 0
0.0756934 0.00423032 0
0.0700231 0.00459158 0
0.231587 5.45021e-08 0
0.0756934 0.00423032 0
0.218618 -7.82485e-08 0
0.169319 0.0046431 0
0.0756934 0.00423032 0
0.163334 0.00432148 0
0.0807418 0.003978 0
0.0756934 0.00423032 0
0.218618 -7.82485e-08 0
0.0807418 0.003978 0
0.206829 -1.52867e-07 0
0.163334 0.00432148 0
0.0807418 0.003978 0
0.157859 0.00429361 0
0.0851135 0.00367036 0
0.0807418 0.003978 0
0.206829 -1.52867e-07 0
0.0851135 0.00367036 0
0.196242 -3.075e-07 0
0.157859 0.00429361 0
0.0851135 0.00367036 0
0.152793 0.00421625 0
0.0887897 0.00356736 0
0.0851135 0.00367036 0
0.196242 -3.075e-07 0
0.0887897 0.00356736 0
0.186745 -3.01916e-07 0
0.152793 0.00421625 0
0.0887897 0.00356736 0
0.148028 0.00431461 0
0.0918355 0.00335596 0
0.0887897 0.00356736 0
0.186745 -3.01916e-07 0
0.0918355 0.00335596 0
0.178139 -4.3614e-07 0
0.148028 0.00431461 0
0.0918355 0.00335596 0
0.143507 0.00421969 0
0.0942721 0.00325961 0
0.0918355 0.00335596 0
0.178139 -4.3614e-07 0
0.0942721 0.00325961 0
0.170407 -4.45621e-07 0
0.143507 0.00421969 0
0.0942721 0.00325961 0
0.13925 0.00423968 0
0.0961713 0.00298997 0
0.0942721 0.00325961 0
0.170407 -4.45621e-07 0
0.0961713 0.00298997 0
0.163564 -6.09301e-07 0
0.13925 0.00423968 0
0.0961713 0.00298997 0
0.135401 0.00367813 0
0.0977541 0.00289813 0
0.0961713 0.00298997 0
0.163564 -6.09301e-07 0
0.0977541 0.00289813 0
0.157394 -4.00686e-07 0
0.135401 0.00367813 0
0.0977541 0.00289813 0
0.132324 0.00270828 0