# vtk DataFile Version 3.0
#This file was generated by the deal.II library on 2026/3/26 at 11:12:03
ASCII
DATASET UNSTRUCTURED_GRID

POINTS 1296 double
0 0 0
0.214286 0 0
0 0.25 0
0.214286 0.25 0
0 0.25 0
0.214286 0.25 0
0 0.5 0
0.214286 0.5 0
0 0.5 0
0.214286 0.5 0
0 0.75 0
0.214286 0.75 0
0.214286 0 0
0.428571 0 0
0.214286 0.25 0
0.428571 0.25 0
0.214286 0.25 0
0.428571 0.25 0
0.214286 0.5 0
0.428571 0.5 0
0.214286 0.5 0
0.428571 0.5 0
0.214286 0.75 0
0.428571 0.75 0
0.428571 0 0
0.642857 0 0
0.428571 0.25 0
0.642857 0.25 0
0.428571 0.25 0
0.642857 0.25 0
0.428571 0.5 0
0.642857 0.5 0
0.428571 0.5 0
0.642857 0.5 0
0.428571 0.75 0
0.642857 0.75 0
0.642857 0 0
0.857143 0 0
0.642857 0.25 0
0.857143 0.25 0
0.642857 0.25 0
0.857143 0.25 0
0.642857 0.5 0
0.857143 0.5 0
0.642857 0.5 0
0.857143 0.5 0
0.642857 0.75 0
0.857143 0.75 0
0.857143 0 0
1.07143 0 0
0.857143 0.25 0
1.07143 0.25 0
0.857143 0.25 0
1.07143 0.25 0
0.857143 0.5 0
1.07143 0.5 0
0.857143 0.5 0
1.07143 0.5 0
0.857143 0.75 0
1.07143 0.75 0
1.07143 0 0
1.28571 0 0
1.07143 0.25 0
1.28571 0.25 0
1.07143 0.25 0
1.28571 0.25 0
1.07143 0.5 0
1.28571 0.5 0
1.07143 0.5 0
1.28571 0.5 0
1.07143 0.75 0
1.28571 0.75 0
1.28571 0 0
1.5 0 0
1.28571 0.25 0
1.5 0.25 0
1.28571 0.25 0
1.5 0.25 0
1.28571 0.5 0
1.5 0.5 0
1.28571 0.5 0
1.5 0.5 0
1.28571 0.75 0
1.5 0.75 0
1.28571 0.75 0
1.5 0.75 0
1.28571 1 0
1.5 1 0
1.5 0 0
1.71429 0 0
1.5 0.25 0
1.71429 0.25 0
1.5 0.25 0
1.71429 0.25 0
1.5 0.5 0
1.71429 0.5 0
1.5 0.5 0
1.71429 0.5 0
1.5 0.75 0
1.71429 0.75 0
1.71429 0 0
1.92857 0 0
1.71429 0.25 0
1.92857 0.25 0
1.71429 0.25 0
1.92857 0.25 0
1.71429 0.5 0
1.92857 0.5 0
1.71429 0.5 0
1.92857 0.5 0
1.71429 0.75 0
1.92857 0.75 0
1.92857 0 0
2.14286 0 0
1.92857 0.25 0
2.14286 0.25 0
1.92857 0.25 0
2.14286 0.25 0
1.92857 0.5 0
2.14286 0.5 0
1.92857 0.5 0
2.14286 0.5 0
1.92857 0.75 0
2.14286 0.75 0
2.14286 0 0
2.35714 0 0
2.14286 0.25 0
2.35714 0.25 0
2.14286 0.25 0
2.35714 0.25 0
2.14286 0.5 0
2.35714 0.5 0
2.14286 0.5 0
2.35714 0.5 0
2.14286 0.75 0
2.35714 0.75 0
2.35714 0 0
2.57143 0 0
2.35714 0.25 0
2.57143 0.25 0
2.35714 0.25 0
2.57143 0.25 0
2.35714 0.5 0
2.57143 0.5 0
2.35714 0.5 0
2.57143 0.5 0
2.35714 0.75 0
2.57143 0.75 0
2.57143 0 0
2.78571 0 0
2.57143 0.25 0
2.78571 0.25 0
2.57143 0.25 0
2.78571 0.25 0
2.57143 0.5 0
2.78571 0.5 0
2.57143 0.5 0
2.78571 0.5 0
2.57143 0.75 0
2.78571 0.75 0
2.78571 0 0
3 0 0
2.78571 0.25 0
3 0.25 0
2.78571 0.25 0
3 0.25 0
2.78571 0.5 0
3 0.5 0
2.78571 0.5 0
3 0.5 0
2.78571 0.75 0
3 0.75 0
1.28571 2 0
1.28571 1.75 0
1.5 2 0
1.5 1.75 0
0 1.75 0
0 1.5 0
0.214286 1.75 0
0.214286 1.5 0
0.214286 1.75 0
0.214286 1.5 0
0.428571 1.75 0
0.428571 1.5 0
0.428571 1.75 0
0.428571 1.5 0
0.642857 1.75 0
0.642857 1.5 0
0.642857 1.75 0
0.642857 1.5 0
0.857143 1.75 0
0.857143 1.5 0
0.857143 1.75 0
0.857143 1.5 0
1.07143 1.75 0
1.07143 1.5 0
1.07143 1.75 0
1.07143 1.5 0
1.28571 1.75 0
1.28571 1.5 0
1.28571 1.75 0
1.28571 1.5 0
1.5 1.75 0
1.5 1.5 0
1.5 1.75 0
1.5 1.5 0
1.71429 1.75 0
1.71429 1.5 0
1.71429 1.75 0
1.71429 1.5 0
1.92857 1.75 0
1.92857 1.5 0
1.92857 1.75 0
1.92857 1.5 0
2.14286 1.75 0
2.14286 1.5 0
2.14286 1.75 0
2.14286 1.5 0
2.35714 1.75 0
2.35714 1.5 0
2.35714 1.75 0
2.35714 1.5 0
2.57143 1.75 0
2.57143 1.5 0
2.57143 1.75 0
2.57143 1.5 0
2.78571 1.75 0
2.78571 1.5 0
2.78571 1.75 0
2.78571 1.5 0
3 1.75 0
3 1.5 0
0 1.5 0
0 1.25 0
0.214286 1.5 0
0.214286 1.25 0
0.214286 1.5 0
0.214286 1.25 0
0.428571 1.5 0
0.428571 1.25 0
0.428571 1.5 0
0.428571 1.25 0
0.642857 1.5 0
0.642857 1.25 0
0.642857 1.5 0
0.642857 1.25 0
0.857143 1.5 0
0.857143 1.25 0
0.857143 1.5 0
0.857143 1.25 0
1.07143 1.5 0
1.07143 1.25 0
1.07143 1.5 0
1.07143 1.25 0
1.28571 1.5 0
1.28571 1.25 0
1.28571 1.5 0
1.28571 1.25 0
1.5 1.5 0
1.5 1.25 0
1.5 1.5 0
1.5 1.25 0
1.71429 1.5 0
1.71429 1.25 0
1.71429 1.5 0
1.71429 1.25 0
1.92857 1.5 0
1.92857 1.25 0
1.92857 1.5 0
1.92857 1.25 0
2.14286 1.5 0
2.14286 1.25 0
2.14286 1.5 0
2.14286 1.25 0
2.35714 1.5 0
2.35714 1.25 0
2.35714 1.5 0
2.35714 1.25 0
2.57143 1.5 0
2.57143 1.25 0
2.57143 1.5 0
2.57143 1.25 0
2.78571 1.5 0
2.78571 1.25 0
2.78571 1.5 0
2.78571 1.25 0
3 1.5 0
3 1.25 0
1.28571 1.25 0
1.28571 1 0
1.5 1.25 0
1.5 1 0
0 3 0
0 2.75 0
0.214286 3 0
0.214286 2.75 0
0.214286 3 0
0.214286 2.75 0
0.428571 3 0
0.428571 2.75 0
0.428571 3 0
0.428571 2.75 0
0.642857 3 0
0.642857 2.75 0
0.642857 3 0
0.642857 2.75 0
0.857143 3 0
0.857143 2.75 0
0.857143 3 0
0.857143 2.75 0
1.07143 3 0
1.07143 2.75 0
1.07143 3 0
1.07143 2.75 0
1.28571 3 0
1.28571 2.75 0
1.28571 3 0
1.28571 2.75 0
1.5 3 0
1.5 2.75 0
1.5 3 0
1.5 2.75 0
1.71429 3 0
1.71429 2.75 0
1.71429 3 0
1.71429 2.75 0
1.92857 3 0
1.92857 2.75 0
1.92857 3 0
1.92857 2.75 0
2.14286 3 0
2.14286 2.75 0
2.14286 3 0
2.14286 2.75 0
2.35714 3 0
2.35714 2.75 0
2.35714 3 0
2.35714 2.75 0
2.57143 3 0
2.57143 2.75 0
2.57143 3 0
2.57143 2.75 0
2.78571 3 0
2.78571 2.75 0
2.78571 3 0
2.78571 2.75 0
3 3 0
3 2.75 0
0 2.75 0
0 2.5 0
0.214286 2.75 0
0.214286 2.5 0
0.214286 2.75 0
0.214286 2.5 0
0.428571 2.75 0
0.428571 2.5 0
0.428571 2.75 0
0.428571 2.5 0
0.642857 2.75 0
0.642857 2.5 0
0.642857 2.75 0
0.642857 2.5 0
0.857143 2.75 0
0.857143 2.5 0
0.857143 2.75 0
0.857143 2.5 0
1.07143 2.75 0
1.07143 2.5 0
1.07143 2.75 0
1.07143 2.5 0
1.28571 2.75 0
1.28571 2.5 0
1.28571 2.75 0
1.28571 2.5 0
1.5 2.75 0
1.5 2.5 0
1.5 2.75 0
1.5 2.5 0
1.71429 2.75 0
1.71429 2.5 0
1.71429 2.75 0
1.71429 2.5 0
1.92857 2.75 0
1.92857 2.5 0
1.92857 2.75 0
1.92857 2.5 0
2.14286 2.75 0
2.14286 2.5 0
2.14286 2.75 0
2.14286 2.5 0
2.35714 2.75 0
2.35714 2.5 0
2.35714 2.75 0
2.35714 2.5 0
2.57143 2.75 0
2.57143 2.5 0
2.57143 2.75 0
2.57143 2.5 0
2.78571 2.75 0
2.78571 2.5 0
2.78571 2.75 0
2.78571 2.5 0
3 2.75 0
3 2.5 0
0 2.5 0
0 2.25 0
0.214286 2.5 0
0.214286 2.25 0
0.214286 2.5 0
0.214286 2.25 0
0.428571 2.5 0
0.428571 2.25 0
0.428571 2.5 0
0.428571 2.25 0
0.642857 2.5 0
0.642857 2.25 0
0.642857 2.5 0
0.642857 2.25 0
0.857143 2.5 0
0.857143 2.25 0
0.857143 2.5 0
0.857143 2.25 0
1.07143 2.5 0
1.07143 2.25 0
1.07143 2.5 0
1.07143 2.25 0
1.28571 2.5 0
1.28571 2.25 0
1.28571 2.5 0
1.28571 2.25 0
1.5 2.5 0
1.5 2.25 0
1.5 2.5 0
1.5 2.25 0
1.71429 2.5 0
1.71429 2.25 0
1.71429 2.5 0
1.71429 2.25 0
1.92857 2.5 0
1.92857 2.25 0
1.92857 2.5 0
1.92857 2.25 0
2.14286 2.5 0
2.14286 2.25 0
2.14286 2.5 0
2.14286 2.25 0
2.35714 2.5 0
2.35714 2.25 0
2.35714 2.5 0
2.35714 2.25 0
2.57143 2.5 0
2.57143 2.25 0
2.57143 2.5 0
2.57143 2.25 0
2.78571 2.5 0
2.78571 2.25 0
2.78571 2.5 0
2.78571 2.25 0
3 2.5 0
3 2.25 0
1.28571 2.25 0
1.28571 2 0
1.5 2.25 0
1.5 2 0
0 0.75 0
0.107143 0.75 0
0 0.875 0
0.107143 0.875 0
0.107143 0.75 0
0.214286 0.75 0
0.107143 0.875 0
0.214286 0.875 0
0 0.875 0
0.107143 0.875 0
0 1 0
0.107143 1 0
0.107143 0.875 0
0.214286 0.875 0
0.107143 1 0
0.214286 1 0
0.214286 0.75 0
0.321429 0.75 0
0.214286 0.875 0
0.321429 0.875 0
0.321429 0.75 0
0.428571 0.75 0
0.321429 0.875 0
0.428571 0.875 0
0.214286 0.875 0
0.321429 0.875 0
0.214286 1 0
0.321429 1 0
0.321429 0.875 0
0.428571 0.875 0
0.321429 1 0
0.428571 1 0
0.428571 0.75 0
0.535714 0.75 0
0.428571 0.875 0
0.535714 0.875 0
0.535714 0.75 0
0.642857 0.75 0
0.535714 0.875 0
0.642857 0.875 0
0.428571 0.875 0
0.535714 0.875 0
0.428571 1 0
0.535714 1 0
0.535714 0.875 0
0.642857 0.875 0
0.535714 1 0
0.642857 1 0
0.642857 0.75 0
0.75 0.75 0
0.642857 0.875 0
0.75 0.875 0
0.75 0.75 0
0.857143 0.75 0
0.75 0.875 0
0.857143 0.875 0
0.642857 0.875 0
0.75 0.875 0
0.642857 1 0
0.75 1 0
0.75 0.875 0
0.857143 0.875 0
0.75 1 0
0.857143 1 0
0.857143 0.75 0
0.964286 0.75 0
0.857143 0.875 0
0.964286 0.875 0
0.964286 0.75 0
1.07143 0.75 0
0.964286 0.875 0
1.07143 0.875 0
0.857143 0.875 0
0.964286 0.875 0
0.857143 1 0
0.964286 1 0
0.964286 0.875 0
1.07143 0.875 0
0.964286 1 0
1.07143 1 0
1.07143 0.75 0
1.17857 0.75 0
1.07143 0.875 0
1.17857 0.875 0
1.17857 0.75 0
1.28571 0.75 0
1.17857 0.875 0
1.28571 0.875 0
1.07143 0.875 0
1.17857 0.875 0
1.07143 1 0
1.17857 1 0
1.17857 0.875 0
1.28571 0.875 0
1.17857 1 0
1.28571 1 0
1.5 0.75 0
1.60714 0.75 0
1.5 0.875 0
1.60714 0.875 0
1.60714 0.75 0
1.71429 0.75 0
1.60714 0.875 0
1.71429 0.875 0
1.5 0.875 0
1.60714 0.875 0
1.5 1 0
1.60714 1 0
1.60714 0.875 0
1.71429 0.875 0
1.60714 1 0
1.71429 1 0
1.71429 0.75 0
1.82143 0.75 0
1.71429 0.875 0
1.82143 0.875 0
1.82143 0.75 0
1.92857 0.75 0
1.82143 0.875 0
1.92857 0.875 0
1.71429 0.875 0
1.82143 0.875 0
1.71429 1 0
1.82143 1 0
1.82143 0.875 0
1.92857 0.875 0
1.82143 1 0
1.92857 1 0
1.92857 0.75 0
2.03571 0.75 0
1.92857 0.875 0
2.03571 0.875 0
2.03571 0.75 0
2.14286 0.75 0
2.03571 0.875 0
2.14286 0.875 0
1.92857 0.875 0
2.03571 0.875 0
1.92857 1 0
2.03571 1 0
2.03571 0.875 0
2.14286 0.875 0
2.03571 1 0
2.14286 1 0
2.14286 0.75 0
2.25 0.75 0
2.14286 0.875 0
2.25 0.875 0
2.25 0.75 0
2.35714 0.75 0
2.25 0.875 0
2.35714 0.875 0
2.14286 0.875 0
2.25 0.875 0
2.14286 1 0
2.25 1 0
2.25 0.875 0
2.35714 0.875 0
2.25 1 0
2.35714 1 0
2.35714 0.75 0
2.46429 0.75 0
2.35714 0.875 0
2.46429 0.875 0
2.46429 0.75 0
2.57143 0.75 0
2.46429 0.875 0
2.57143 0.875 0
2.35714 0.875 0
2.46429 0.875 0
2.35714 1 0
2.46429 1 0
2.46429 0.875 0
2.57143 0.875 0
2.46429 1 0
2.57143 1 0
2.57143 0.75 0
2.67857 0.75 0
2.57143 0.875 0
2.67857 0.875 0
2.67857 0.75 0
2.78571 0.75 0
2.67857 0.875 0
2.78571 0.875 0
2.57143 0.875 0
2.67857 0.875 0
2.57143 1 0
2.67857 1 0
2.67857 0.875 0
2.78571 0.875 0
2.67857 1 0
2.78571 1 0
2.78571 0.75 0
2.89286 0.75 0
2.78571 0.875 0
2.89286 0.875 0
2.89286 0.75 0
3 0.75 0
2.89286 0.875 0
3 0.875 0
2.78571 0.875 0
2.89286 0.875 0
2.78571 1 0
2.89286 1 0
2.89286 0.875 0
3 0.875 0
2.89286 1 0
3 1 0
0 2 0
0 1.875 0
0.107143 2 0
0.107143 1.875 0
0 1.875 0
0 1.75 0
0.107143 1.875 0
0.107143 1.75 0
0.107143 2 0
0.107143 1.875 0
0.214286 2 0
0.214286 1.875 0
0.107143 1.875 0
0.107143 1.75 0
0.214286 1.875 0
0.214286 1.75 0
0.214286 2 0
0.214286 1.875 0
0.321429 2 0
0.321429 1.875 0
0.214286 1.875 0
0.214286 1.75 0
0.321429 1.875 0
0.321429 1.75 0
0.321429 2 0
0.321429 1.875 0
0.428571 2 0
0.428571 1.875 0
0.321429 1.875 0
0.321429 1.75 0
[...]
POINT_DATA 1296
VECTORS velocity double
0 0 0
0 0 0
0 0 0
-1.88064e-05 8.75131e-06 0
0 0 0
-1.88064e-05 8.75131e-06 0
0 0 0
-0.000460693 0.000587178 0
0 0 0
-0.000460693 0.000587178 0
0 0 0
-0.000876442 0.00217166 0
0 0 0
0 0 0
-1.88064e-05 8.75131e-06 0
-7.53322e-05 3.69961e-05 0
-1.88064e-05 8.75131e-06 0
-7.53322e-05 3.69961e-05 0
-0.000460693 0.000587178 0
-0.00132515 0.000570163 0
-0.000460693 0.000587178 0
-0.00132515 0.000570163 0
-0.000876442 0.00217166 0
-0.00254112 0.00195063 0
0 0 0
0 0 0
-7.53322e-05 3.69961e-05 0
-0.000120044 -7.52982e-07 0
-7.53322e-05 3.69961e-05 0
-0.000120044 -7.52982e-07 0
-0.00132515 0.000570163 0
-0.00203122 0.000379786 0
-0.00132515 0.000570163 0
-0.00203122 0.000379786 0
-0.00254112 0.00195063 0
-0.003997 0.00153624 0
0 0 0
0 0 0
-0.000120044 -7.52982e-07 0
-0.000199851 7.95883e-05 0
-0.000120044 -7.52982e-07 0
-0.000199851 7.95883e-05 0
-0.00203122 0.000379786 0
-0.00240645 0.000269986 0
-0.00203122 0.000379786 0
-0.00240645 0.000269986 0
-0.003997 0.00153624 0
-0.00528041 0.00105974 0
0 0 0
0 0 0
-0.000199851 7.95883e-05 0
-0.000555017 0.00032576 0
-0.000199851 7.95883e-05 0
-0.000555017 0.00032576 0
-0.00240645 0.000269986 0
-0.00239703 0.000584071 0
-0.00240645 0.000269986 0
-0.00239703 0.000584071 0
-0.00528041 0.00105974 0
-0.0059364 0.000557442 0
0 0 0
0 0 0
-0.000555017 0.00032576 0
-0.00172463 0.00103686 0
-0.000555017 0.00032576 0
-0.00172463 0.00103686 0
-0.00239703 0.000584071 0
-0.00184239 0.00156033 0
-0.00239703 0.000584071 0
-0.00184239 0.00156033 0
-0.0059364 0.000557442 0
-0.00696203 0.00216835 0
0 0 0
0 0 0
-0.00172463 0.00103686 0
-0.00414733 0.00177608 0
-0.00172463 0.00103686 0
-0.00414733 0.00177608 0
-0.00184239 0.00156033 0
-0.00285314 0.00527886 0
-0.00184239 0.00156033 0
-0.00285314 0.00527886 0
-0.00696203 0.00216835 0
-0.0047256 0.00321432 0
-0.00696203 0.00216835 0
-0.0047256 0.00321432 0
0.0176661 0.00127489 0
0.0193054 -0.000333719 0
0 0 0
0 0 0
-0.00414733 0.00177608 0
-0.00978154 0.00484007 0
-0.00414733 0.00177608 0
-0.00978154 0.00484007 0
-0.00285314 0.00527886 0
-0.00633833 0.0120647 0
-0.00285314 0.00527886 0
-0.00633833 0.0120647 0
-0.0047256 0.00321432 0
0.00161979 0.0109273 0
0 0 0
0 0 0
-0.00978154 0.00484007 0
-0.0202459 0.00735765 0
-0.00978154 0.00484007 0
-0.0202459 0.00735765 0
-0.00633833 0.0120647 0
-0.0110175 0.0176665 0
-0.00633833 0.0120647 0
-0.0110175 0.0176665 0
0.00161979 0.0109273 0
0.0120785 0.012017 0
0 0 0
0 0 0
-0.0202459 0.00735765 0
-0.0314357 0.00595237 0
-0.0202459 0.00735765 0
-0.0314357 0.00595237 0
-0.0110175 0.0176665 0
-0.0117726 0.00963879 0
-0.0110175 0.0176665 0
-0.0117726 0.00963879 0
0.0120785 0.012017 0
0.0171254 0.010498 0
0 0 0
0 0 0
-0.0314357 0.00595237 0
-0.0350635 -0.00150525 0
-0.0314357 0.00595237 0
-0.0350635 -0.00150525 0
-0.0117726 0.00963879 0
-0.00890389 -0.00473255 0
-0.0117726 0.00963879 0
-0.00890389 -0.00473255 0
0.0171254 0.010498 0
0.0157869 -0.00785006 0
0 0 0
0 0 0
-0.0350635 -0.00150525 0
-0.027632 -0.00682021 0
-0.0350635 -0.00150525 0
-0.027632 -0.00682021 0
-0.00890389 -0.00473255 0
-0.00923932 -0.011593 0
-0.00890389 -0.00473255 0
-0.00923932 -0.011593 0
0.0157869 -0.00785006 0
0.00934986 -4.98563e-05 0
0 0 0
0 0 0
-0.027632 -0.00682021 0
-0.0111422 -0.0127389 0
-0.027632 -0.00682021 0
-0.0111422 -0.0127389 0
-0.00923932 -0.011593 0
-0.00587549 -0.0315177 0
-0.00923932 -0.011593 0
-0.00587549 -0.0315177 0
0.00934986 -4.98563e-05 0
-0.000108733 -0.036853 0
0 0 0
0 0 0
-0.0111422 -0.0127389 0
0 0 0
-0.0111422 -0.0127389 0
0 0 0
-0.00587549 -0.0315177 0
0 0 0
-0.00587549 -0.0315177 0
0 0 0
-0.000108733 -0.036853 0
0 0 0
0.0176661 -0.00127489 0
0.192403 0.000405978 0
0.0193054 0.000333719 0
0.192015 0.000320741 0
0.194474 0.000417107 0
0.266735 -4.6958e-14 0
0.194069 0.000349074 0
0.266501 -4.68139e-14 0
0.194069 0.000349074 0
0.266501 -4.68139e-14 0
0.193729 0.000329808 0
0.26629 -4.73548e-14 0
0.193729 0.000329808 0
0.26629 -4.73548e-14 0
0.193418 0.000307168 0
0.266107 -4.7186e-14 0
0.193418 0.000307168 0
0.266107 -4.7186e-14 0
0.193143 0.000312573 0
0.26592 -4.83203e-14 0
0.193143 0.000312573 0
0.26592 -4.83203e-14 0
0.19292 0.000319259 0
0.265705 -4.62873e-14 0
0.19292 0.000319259 0
0.265705 -4.62873e-14 0
0.192403 0.000405978 0
0.265651 -4.98216e-14 0
0.192403 0.000405978 0
0.265651 -4.98216e-14 0
0.192015 0.000320741 0
0.265656 -5.06217e-14 0
0.192015 0.000320741 0
0.265656 -5.06217e-14 0
0.191604 0.000176998 0
0.265859 -4.71147e-14 0
0.191604 0.000176998 0
0.265859 -4.71147e-14 0
0.191574 -0.000108304 0
0.266152 -3.98373e-14 0
0.191574 -0.000108304 0
0.266152 -3.98373e-14 0
0.191609 0.000186783 0
0.26631 -2.88595e-14 0
0.191609 0.000186783 0
0.26631 -2.88595e-14 0
0.191351 0.00132099 0
0.266047 -1.93975e-14 0
0.191351 0.00132099 0
0.266047 -1.93975e-14 0
0.190448 0.00100153 0
0.264568 -8.57984e-15 0
0.190448 0.00100153 0
0.264568 -8.57984e-15 0
0.189378 0.00780824 0
0.260821 -4.28137e-15 0
0.189378 0.00780824 0
0.260821 -4.28137e-15 0
0.1875 0 0
0.25 0 0
0.266735 -4.6958e-14 0
0.194474 -0.000417107 0
0.266501 -4.68139e-14 0
0.194069 -0.000349074 0
0.266501 -4.68139e-14 0
0.194069 -0.000349074 0
0.26629 -4.73548e-14 0
0.193729 -0.000329808 0
0.26629 -4.73548e-14 0
0.193729 -0.000329808 0
0.266107 -4.7186e-14 0
0.193418 -0.000307168 0
0.266107 -4.7186e-14 0
0.193418 -0.000307168 0
0.26592 -4.83203e-14 0
0.193143 -0.000312573 0
0.26592 -4.83203e-14 0
0.193143 -0.000312573 0
0.265705 -4.62873e-14 0
0.19292 -0.000319259 0
0.265705 -4.62873e-14 0
0.19292 -0.000319259 0
0.265651 -4.98216e-14 0
0.192403 -0.000405978 0
0.265651 -4.98216e-14 0
0.192403 -0.000405978 0
0.265656 -5.06217e-14 0
0.192015 -0.000320741 0
0.265656 -5.06217e-14 0
0.192015 -0.000320741 0
0.265859 -4.71147e-14 0
0.191604 -0.000176998 0
0.265859 -4.71147e-14 0
0.191604 -0.000176998 0
0.266152 -3.98373e-14 0
0.191574 0.000108304 0
0.266152 -3.98373e-14 0
0.191574 0.000108304 0
0.26631 -2.88595e-14 0
0.191609 -0.000186783 0
0.26631 -2.88595e-14 0
0.191609 -0.000186783 0
0.266047 -1.93975e-14 0
0.191351 -0.00132099 0
0.266047 -1.93975e-14 0
0.191351 -0.00132099 0
0.264568 -8.57984e-15 0
0.190448 -0.00100153 0
0.264568 -8.57984e-15 0
0.190448 -0.00100153 0
0.260821 -4.28137e-15 0
0.189378 -0.00780824 0
0.260821 -4.28137e-15 0
0.189378 -0.00780824 0
0.25 0 0
0.1875 0 0
0.192403 -0.000405978 0
0.0176661 0.00127489 0
0.192015 -0.000320741 0
0.0193054 -0.000333719 0
0 0 0
0 0 0
0 0 0
-1.88064e-05 -8.75131e-06 0
0 0 0
-1.88064e-05 -8.75131e-06 0
0 0 0
-7.53322e-05 -3.69961e-05 0
0 0 0
-7.53322e-05 -3.69961e-05 0
0 0 0
-0.000120044 7.52982e-07 0
0 0 0
-0.000120044 7.52982e-07 0
0 0 0
-0.000199851 -7.95883e-05 0
0 0 0
-0.000199851 -7.95883e-05 0
0 0 0
-0.000555017 -0.00032576 0
0 0 0
-0.000555017 -0.00032576 0
0 0 0
-0.00172463 -0.00103686 0
0 0 0
-0.00172463 -0.00103686 0
0 0 0
-0.00414733 -0.00177608 0
0 0 0
-0.00414733 -0.00177608 0
0 0 0
-0.00978154 -0.00484007 0
0 0 0
-0.00978154 -0.00484007 0
0 0 0
-0.0202459 -0.00735765 0
0 0 0
-0.0202459 -0.00735765 0
0 0 0
-0.0314357 -0.00595237 0
0 0 0
-0.0314357 -0.00595237 0
0 0 0
-0.0350635 0.00150525 0
0 0 0
-0.0350635 0.00150525 0
0 0 0
-0.027632 0.00682021 0
0 0 0
-0.027632 0.00682021 0
0 0 0
-0.0111422 0.0127389 0
0 0 0
-0.0111422 0.0127389 0
0 0 0
0 0 0
0 0 0
0 0 0
-1.88064e-05 -8.75131e-06 0
-0.000460693 -0.000587178 0
-1.88064e-05 -8.75131e-06 0
-0.000460693 -0.000587178 0
-7.53322e-05 -3.69961e-05 0
-0.00132515 -0.000570163 0
-7.53322e-05 -3.69961e-05 0
-0.00132515 -0.000570163 0
-0.000120044 7.52982e-07 0
-0.00203122 -0.000379786 0
-0.000120044 7.52982e-07 0
-0.00203122 -0.000379786 0
-0.000199851 -7.95883e-05 0
-0.00240645 -0.000269986 0
-0.000199851 -7.95883e-05 0
-0.00240645 -0.000269986 0
-0.000555017 -0.00032576 0
-0.00239703 -0.000584071 0
-0.000555017 -0.00032576 0
-0.00239703 -0.000584071 0
-0.00172463 -0.00103686 0
-0.00184239 -0.00156033 0
-0.00172463 -0.00103686 0
-0.00184239 -0.00156033 0
-0.00414733 -0.00177608 0
-0.00285314 -0.00527886 0
-0.00414733 -0.00177608 0
-0.00285314 -0.00527886 0
-0.00978154 -0.00484007 0
-0.00633833 -0.0120647 0
-0.00978154 -0.00484007 0
-0.00633833 -0.0120647 0
-0.0202459 -0.00735765 0
-0.0110175 -0.0176665 0
-0.0202459 -0.00735765 0
-0.0110175 -0.0176665 0
-0.0314357 -0.00595237 0
-0.0117726 -0.00963879 0
-0.0314357 -0.00595237 0
-0.0117726 -0.00963879 0
-0.0350635 0.00150525 0
-0.00890389 0.00473255 0
-0.0350635 0.00150525 0
-0.00890389 0.00473255 0
-0.027632 0.00682021 0
-0.00923932 0.011593 0
-0.027632 0.00682021 0
-0.00923932 0.011593 0
-0.0111422 0.0127389 0
-0.00587549 0.0315177 0
-0.0111422 0.0127389 0
-0.00587549 0.0315177 0
0 0 0
0 0 0
0 0 0
0 0 0
-0.000460693 -0.000587178 0
-0.000876442 -0.00217166 0
-0.000460693 -0.000587178 0
-0.000876442 -0.00217166 0
-0.00132515 -0.000570163 0
-0.00254112 -0.00195063 0
-0.00132515 -0.000570163 0
-0.00254112 -0.00195063 0
-0.00203122 -0.000379786 0
-0.003997 -0.00153624 0
-0.00203122 -0.000379786 0
-0.003997 -0.00153624 0
-0.00240645 -0.000269986 0
-0.00528041 -0.00105974 0
-0.00240645 -0.000269986 0
-0.00528041 -0.00105974 0
-0.00239703 -0.000584071 0
-0.0059364 -0.000557442 0
-0.00239703 -0.000584071 0
-0.0059364 -0.000557442 0
-0.00184239 -0.00156033 0
-0.00696203 -0.00216835 0
-0.00184239 -0.00156033 0
-0.00696203 -0.00216835 0
-0.00285314 -0.00527886 0
-0.0047256 -0.00321432 0
-0.00285314 -0.00527886 0
-0.0047256 -0.00321432 0
-0.00633833 -0.0120647 0
0.00161979 -0.0109273 0
-0.00633833 -0.0120647 0
0.00161979 -0.0109273 0
-0.0110175 -0.0176665 0
0.0120785 -0.012017 0
-0.0110175 -0.0176665 0
0.0120785 -0.012017 0
-0.0117726 -0.00963879 0
0.0171254 -0.010498 0
-0.0117726 -0.00963879 0
0.0171254 -0.010498 0
-0.00890389 0.00473255 0
0.0157869 0.00785006 0
-0.00890389 0.00473255 0
0.0157869 0.00785006 0
-0.00923932 0.011593 0
0.00934986 4.98563e-05 0
-0.00923932 0.011593 0
0.00934986 4.98563e-05 0
-0.00587549 0.0315177 0
-0.000108733 0.036853 0
-0.00587549 0.0315177 0
-0.000108733 0.036853 0
0 0 0
0 0 0
-0.00696203 -0.00216835 0
0.0176661 -0.00127489 0
-0.0047256 -0.00321432 0
0.0193054 0.000333719 0
0 0 0
-0.000211111 0.00109838 0
0 0 0
-0.00135786 0.00307942 0
-0.000211111 0.00109838 0
-0.000876442 0.00217166 0
-0.00135786 0.00307942 0
-0.00304693 0.00310244 0
0 0 0
-0.00135786 0.00307942 0
0 0 0
0.00232428 0.00229533 0
-0.00135786 0.00307942 0
-0.00304693 0.00310244 0
0.00232428 0.00229533 0
0.00620135 0.00163542 0
-0.000876442 0.00217166 0
-0.00173754 0.00206556 0
-0.00304693 0.00310244 0
-0.00333313 0.0026544 0
-0.00173754 0.00206556 0
-0.00254112 0.00195063 0
-0.00333313 0.0026544 0
-0.00330516 0.00244205 0
-0.00304693 0.00310244 0
-0.00333313 0.0026544 0
0.00620135 0.00163542 0
0.00894846 0.00154363 0
-0.00333313 0.0026544 0
-0.00330516 0.00244205 0
0.00894846 0.00154363 0
0.0111571 0.00118155 0
-0.00254112 0.00195063 0
-0.00329161 0.00174515 0
-0.00330516 0.00244205 0
-0.00309164 0.00207449 0
-0.00329161 0.00174515 0
-0.003997 0.00153624 0
-0.00309164 0.00207449 0
-0.00296291 0.00205943 0
-0.00330516 0.00244205 0
-0.00309164 0.00207449 0
0.0111571 0.00118155 0
0.012913 0.00127448 0
-0.00309164 0.00207449 0
-0.00296291 0.00205943 0
0.012913 0.00127448 0
0.0145431 0.000979616 0
-0.003997 0.00153624 0
-0.004658 0.00130095 0
-0.00296291 0.00205943 0
-0.00274052 0.00149321 0
-0.004658 0.00130095 0
-0.00528041 0.00105974 0
-0.00274052 0.00149321 0
-0.00280225 0.00184614 0
-0.00296291 0.00205943 0
-0.00274052 0.00149321 0
0.0145431 0.000979616 0
0.0157769 0.0010641 0
-0.00274052 0.00149321 0
-0.00280225 0.00184614 0
0.0157769 0.0010641 0
0.0170806 0.000936797 0
-0.00528041 0.00105974 0
-0.00574403 0.000807657 0
-0.00280225 0.00184614 0
-0.00267314 0.000620139 0
-0.00574403 0.000807657 0
-0.0059364 0.000557442 0
-0.00267314 0.000620139 0
-0.0032664 0.00184212 0
-0.00280225 0.00184614 0
-0.00267314 0.000620139 0
0.0170806 0.000936797 0
0.0178105 0.00068042 0
-0.00267314 0.000620139 0
-0.0032664 0.00184212 0
0.0178105 0.00068042 0
0.0190068 0.00112905 0
-0.0059364 0.000557442 0
-0.0062169 0.00132874 0
-0.0032664 0.00184212 0
-0.00242368 -0.00040441 0
-0.0062169 0.00132874 0
-0.00696203 0.00216835 0
-0.00242368 -0.00040441 0
-0.000360927 0.00254616 0
-0.0032664 0.00184212 0
-0.00242368 -0.00040441 0
0.0190068 0.00112905 0
0.0187755 -0.000269433 0
-0.00242368 -0.00040441 0
-0.000360927 0.00254616 0
0.0187755 -0.000269433 0
0.0176661 0.00127489 0
-0.0047256 0.00321432 0
-0.00150227 0.00693083 0
0.00153143 0.000422719 0
0.0045281 0.00225139 0
-0.00150227 0.00693083 0
0.00161979 0.0109273 0
0.0045281 0.00225139 0
0.00783558 0.00783783 0
0.00153143 0.000422719 0
0.0045281 0.00225139 0
0.0193054 -0.000333719 0
0.0183962 0.00049496 0
0.0045281 0.00225139 0
0.00783558 0.00783783 0
0.0183962 0.00049496 0
0.0208484 0.00269731 0
0.00161979 0.0109273 0
0.0057434 0.0117083 0
0.00783558 0.00783783 0
0.0124745 0.00436268 0
0.0057434 0.0117083 0
0.0120785 0.012017 0
0.0124745 0.00436268 0
0.0155368 0.0082245 0
0.00783558 0.00783783 0
0.0124745 0.00436268 0
0.0208484 0.00269731 0
0.0231707 0.00136473 0
0.0124745 0.00436268 0
0.0155368 0.0082245 0
0.0231707 0.00136473 0
0.0265939 0.00346969 0
0.0120785 0.012017 0
0.0170979 0.0109652 0
0.0155368 0.0082245 0
0.0194568 0.00410635 0
0.0170979 0.0109652 0
0.0171254 0.010498 0
0.0194568 0.00410635 0
0.0253184 0.0103685 0
0.0155368 0.0082245 0
0.0194568 0.00410635 0
0.0265939 0.00346969 0
0.0291191 0.00130219 0
0.0194568 0.00410635 0
0.0253184 0.0103685 0
0.0291191 0.00130219 0
0.0316102 0.00312845 0
0.0171254 0.010498 0
0.0154694 0.00195988 0
0.0253184 0.0103685 0
0.0293837 -0.000842557 0
0.0154694 0.00195988 0
0.0157869 -0.00785006 0
0.0293837 -0.000842557 0
0.0246656 0.000142808 0
0.0253184 0.0103685 0
0.0293837 -0.000842557 0
0.0316102 0.00312845 0
0.0331123 -8.49321e-05 0
0.0293837 -0.000842557 0
0.0246656 0.000142808 0
0.0331123 -8.49321e-05 0
0.0354615 0.00183454 0
0.0157869 -0.00785006 0
0.0149444 -0.00484445 0
0.0246656 0.000142808 0
0.0199429 -0.00648538 0
0.0149444 -0.00484445 0
0.00934986 -4.98563e-05 0
0.0199429 -0.00648538 0
0.0213448 0.00644168 0
0.0246656 0.000142808 0
0.0199429 -0.00648538 0
0.0354615 0.00183454 0
0.035245 -0.00236313 0
0.0199429 -0.00648538 0
0.0213448 0.00644168 0
0.035245 -0.00236313 0
0.0354418 2.66494e-05 0
0.00934986 -4.98563e-05 0
0.0028033 -0.0175025 0
0.0213448 0.00644168 0
0.0220734 -0.0174912 0
0.0028033 -0.0175025 0
-0.000108733 -0.036853 0
0.0220734 -0.0174912 0
0.00137521 -0.00905723 0
0.0213448 0.00644168 0
0.0220734 -0.0174912 0
0.0354418 2.66494e-05 0
0.0324249 -0.00850005 0
0.0220734 -0.0174912 0
0.00137521 -0.00905723 0
0.0324249 -0.00850005 0
0.0349632 0.00239248 0
-0.000108733 -0.036853 0
-0.000294177 -0.0209671 0
0.00137521 -0.00905723 0
-0.0110457 -0.0341053 0
-0.000294177 -0.0209671 0
0 0 0
-0.0110457 -0.0341053 0
0 0 0
0.00137521 -0.00905723 0
-0.0110457 -0.0341053 0
0.0349632 0.00239248 0
0.0246266 -0.018468 0
-0.0110457 -0.0341053 0
0 0 0
0.0246266 -0.018468 0
0 0 0
0 0 0
0.0877979 0.000339395 0
0.00232428 -0.00229533 0
0.0880778 0.000411179 0
0.0877979 0.000339395 0
0.194474 0.000417107 0
0.0880778 0.000411179 0
0.194246 0.000377685 0
0.00232428 -0.00229533 0
0.0880778 0.000411179 0
0.00620135 -0.00163542 0
0.0882239 0.000425832 0
0.0880778 0.000411179 0
0.194246 0.000377685 0
0.0882239 0.000425832 0
0.194069 0.000349074 0
0.00620135 -0.00163542 0
0.0882239 0.000425832 0
0.00894846 -0.00154363 0
0.0885678 0.000154477 0
0.0882239 0.000425832 0
0.194069 0.000349074 0
0.0885678 0.000154477 0
0.193908 0.000338357 0
0.00894846 -0.00154363 0
0.0885678 0.000154477 0
0.0111571 -0.00118155 0
0.0889944 0.000395173 0
0.0885678 0.000154477 0
0.193908 0.000338357 0
0.0889944 0.000395173 0
0.193729 0.000329808 0
0.0111571 -0.00118155 0
0.0889944 0.000395173 0
0.012913 -0.00127448 0
0.0895015 5.05813e-05 0
0.0889944 0.000395173 0
0.193729 0.000329808 0
0.0895015 5.05813e-05 0
0.193552 0.000316372 0
0.012913 -0.00127448 0
0.0895015 5.05813e-05 0
0.0145431 -0.000979616 0
0.0899706 0.000443151 0
0.0895015 5.05813e-05 0
0.193552 0.000316372 0
0.0899706 0.000443151 0
0.193418 0.000307168 0
0.0145431 -0.000979616 0
0.0899706 0.000443151 0
0.0157769 -0.0010641 0
0.0905157 -5.22572e-05 0
0.0899706 0.000443151 0
0.193418 0.000307168 0
0.0905157 -5.22572e-05 0
0.193294 0.000311282 0
0.0157769 -0.0010641 0
0.0905157 -5.22572e-05 0
0.0170806 -0.000936797 0
0.0910505 0.00058941 0
0.0905157 -5.22572e-05 0
0.193294 0.000311282 0
0.0910505 0.00058941 0
0.193143 0.000312573 0
0.0170806 -0.000936797 0
0.0910505 0.00058941 0
0.0178105 -0.00068042 0
0.0916688 -0.000176758 0
0.0910505 0.00058941 0
0.193143 0.000312573 0
0.0916688 -0.000176758 0
0.192996 0.000303152 0
0.0178105 -0.00068042 0
0.0916688 -0.000176758 0
0.0190068 -0.00112905 0
0.092142 0.000809669 0
0.0916688 -0.000176758 0
0.192996 0.000303152 0
0.092142 0.000809669 0
0.19292 0.000319259 0
0.0190068 -0.00112905 0
0.092142 0.000809669 0
0.0187755 0.000269433 0
0.0929811 -0.000387682 0
0.092142 0.000809669 0
0.19292 0.000319259 0
0.0929811 -0.000387682 0
0.192755 0.000416614 0
0.0187755 0.000269433 0
0.0929811 -0.000387682 0
0.0176661 -0.00127489 0
0.0944873 0.000263337 0
0.0929811 -0.000387682 0
0.192755 0.000416614 0
0.0944873 0.000263337 0
0.192403 0.000405978 0
0.0193054 0.000333719 0
0.0952378 0.000226783 0
0.0183962 -0.00049496 0
0.0956173 -0.000692801 0
0.0952378 0.000226783 0
0.192015 0.000320741 0
0.0956173 -0.000692801 0
0.191969 0.000256327 0
0.0183962 -0.00049496 0
0.0956173 -0.000692801 0
0.0208484 -0.00269731 0
0.0957091 0.000770955 0
0.0956173 -0.000692801 0
0.191969 0.000256327 0
0.0957091 0.000770955 0
0.191604 0.000176998 0
0.0208484 -0.00269731 0
0.0957091 0.000770955 0
0.0231707 -0.00136473 0
0.0960891 -0.0013663 0
0.0957091 0.000770955 0
0.191604 0.000176998 0
0.0960891 -0.0013663 0
0.191258 7.77818e-06 0
0.0231707 -0.00136473 0
0.0960891 -0.0013663 0
0.0265939 -0.00346969 0
0.095797 0.000637537 0
0.0960891 -0.0013663 0
0.191258 7.77818e-06 0
0.095797 0.000637537 0
0.191574 -0.000108304 0
0.0265939 -0.00346969 0
0.095797 0.000637537 0
0.0291191 -0.00130219 0
0.0958552 -0.00191935 0
0.095797 0.000637537 0
0.191574 -0.000108304 0
0.0958552 -0.00191935 0
0.191952 0.000133561 0
0.0291191 -0.00130219 0
0.0958552 -0.00191935 0
0.0316102 -0.00312845 0
0.0962557 0.00154888 0
0.0958552 -0.00191935 0
0.191952 0.000133561 0
0.0962557 0.00154888 0
0.191609 0.000186783 0
0.0316102 -0.00312845 0
0.0962557 0.00154888 0
0.0331123 8.49321e-05 0
0.0967752 -0.00171278 0
0.0962557 0.00154888 0
0.191609 0.000186783 0
0.0967752 -0.00171278 0
0.191115 0.000473348 0
0.0331123 8.49321e-05 0
0.0967752 -0.00171278 0
0.0354615 -0.00183454 0
0.0963933 0.00308496 0
0.0967752 -0.00171278 0
0.191115 0.000473348 0
0.0963933 0.00308496 0
0.191351 0.00132099 0
0.0354615 -0.00183454 0
0.0963933 0.00308496 0
0.035245 0.00236313 0
0.0969005 -0.00146702 0
0.0963933 0.00308496 0
0.191351 0.00132099 0
0.0969005 -0.00146702 0
0.191399 0.00192116 0
0.035245 0.00236313 0
0.0969005 -0.00146702 0
0.0354418 -2.66494e-05 0
0.0967999 0.00503227 0
0.0969005 -0.00146702 0
0.191399 0.00192116 0
0.0967999 0.00503227 0
0.190448 0.00100153 0
0.0354418 -2.66494e-05 0
0.0967999 0.00503227 0
0.0324249 0.00850005 0
0.0959047 -0.000349533 0
0.0967999 0.00503227 0
0.190448 0.00100153 0
0.0959047 -0.000349533 0
0.189526 0.00257928 0
0.0324249 0.00850005 0
0.0959047 -0.000349533 0
0.0349632 -0.00239248 0
0.0956162 0.0104257 0
0.0959047 -0.000349533 0
0.189526 0.00257928 0
0.0956162 0.0104257 0
0.189378 0.00780824 0
0.0349632 -0.00239248 0
0.0956162 0.0104257 0
0.0246266 0.018468 0
0.101017 0.000726814 0
0.0956162 0.0104257 0
0.189378 0.00780824 0
0.101017 0.000726814 0
0.188435 0.00944772 0
0.0246266 0.018468 0
0.101017 0.000726814 0
0 0 0
0.109375 0 0
0.101017 0.000726814 0
0.188435 0.00944772 0
0.109375 0 0
0.1875 0 0
0.194474 -0.000417107 0
0.0877979 -0.000339395 0
0.194246 -0.000377685 0
0.0880778 -0.000411179 0
0.0877979 -0.000339395 0
0 0 0
0.0880778 -0.000411179 0
0.00232428 0.00229533 0
0.194246 -0.000377685 0
0.0880778 -0.000411179 0
0.194069 -0.000349074 0
0.0882239 -0.000425832 0