# vtk DataFile Version 3.0
#This file was generated by the deal.II library on 2026/3/26 at 11:20:37
ASCII
DATASET UNSTRUCTURED_GRID

POINTS 3648 double
0 0 0
0.214286 0 0
0 0.25 0
0.214286 0.25 0
0 0.25 0
0.214286 0.25 0
0 0.5 0
0.214286 0.5 0
0.214286 0 0
0.428571 0 0
0.214286 0.25 0
0.428571 0.25 0
0.214286 0.25 0
0.428571 0.25 0
0.214286 0.5 0
0.428571 0.5 0
0.428571 0 0
0.642857 0 0
0.428571 0.25 0
0.642857 0.25 0
0.428571 0.25 0
0.642857 0.25 0
0.428571 0.5 0
0.642857 0.5 0
0.428571 0.5 0
0.642857 0.5 0
0.428571 0.75 0
0.642857 0.75 0
0.642857 0 0
0.857143 0 0
0.642857 0.25 0
0.857143 0.25 0
0.642857 0.25 0
0.857143 0.25 0
0.642857 0.5 0
0.857143 0.5 0
0.642857 0.5 0
0.857143 0.5 0
0.642857 0.75 0
0.857143 0.75 0
0.857143 0 0
1.07143 0 0
0.857143 0.25 0
1.07143 0.25 0
0.857143 0.25 0
1.07143 0.25 0
0.857143 0.5 0
1.07143 0.5 0
0.857143 0.5 0
1.07143 0.5 0
0.857143 0.75 0
1.07143 0.75 0
1.07143 0 0
1.28571 0 0
1.07143 0.25 0
1.28571 0.25 0
1.07143 0.25 0
1.28571 0.25 0
1.07143 0.5 0
1.28571 0.5 0
1.07143 0.5 0
1.28571 0.5 0
1.07143 0.75 0
1.28571 0.75 0
1.28571 0 0
1.5 0 0
1.28571 0.25 0
1.5 0.25 0
1.28571 0.25 0
1.5 0.25 0
1.28571 0.5 0
1.5 0.5 0
1.5 0 0
1.71429 0 0
1.5 0.25 0
1.71429 0.25 0
1.5 0.25 0
1.71429 0.25 0
1.5 0.5 0
1.71429 0.5 0
1.71429 0 0
1.92857 0 0
1.71429 0.25 0
1.92857 0.25 0
1.71429 0.25 0
1.92857 0.25 0
1.71429 0.5 0
1.92857 0.5 0
1.92857 0 0
2.14286 0 0
1.92857 0.25 0
2.14286 0.25 0
1.92857 0.25 0
2.14286 0.25 0
1.92857 0.5 0
2.14286 0.5 0
0 3 0
0 2.75 0
0.214286 3 0
0.214286 2.75 0
0.214286 3 0
0.214286 2.75 0
0.428571 3 0
0.428571 2.75 0
0.428571 3 0
0.428571 2.75 0
0.642857 3 0
0.642857 2.75 0
0.642857 3 0
0.642857 2.75 0
0.857143 3 0
0.857143 2.75 0
0.857143 3 0
0.857143 2.75 0
1.07143 3 0
1.07143 2.75 0
1.07143 3 0
1.07143 2.75 0
1.28571 3 0
1.28571 2.75 0
1.28571 3 0
1.28571 2.75 0
1.5 3 0
1.5 2.75 0
1.5 3 0
1.5 2.75 0
1.71429 3 0
1.71429 2.75 0
1.71429 3 0
1.71429 2.75 0
1.92857 3 0
1.92857 2.75 0
1.92857 3 0
1.92857 2.75 0
2.14286 3 0
2.14286 2.75 0
0 2.75 0
0 2.5 0
0.214286 2.75 0
0.214286 2.5 0
0.214286 2.75 0
0.214286 2.5 0
0.428571 2.75 0
0.428571 2.5 0
0.428571 2.75 0
0.428571 2.5 0
0.642857 2.75 0
0.642857 2.5 0
0.642857 2.75 0
0.642857 2.5 0
0.857143 2.75 0
0.857143 2.5 0
0.857143 2.75 0
0.857143 2.5 0
1.07143 2.75 0
1.07143 2.5 0
1.07143 2.75 0
1.07143 2.5 0
1.28571 2.75 0
1.28571 2.5 0
1.28571 2.75 0
1.28571 2.5 0
1.5 2.75 0
1.5 2.5 0
1.5 2.75 0
1.5 2.5 0
1.71429 2.75 0
1.71429 2.5 0
1.71429 2.75 0
1.71429 2.5 0
1.92857 2.75 0
1.92857 2.5 0
1.92857 2.75 0
1.92857 2.5 0
2.14286 2.75 0
2.14286 2.5 0
0.428571 2.5 0
0.428571 2.25 0
0.642857 2.5 0
0.642857 2.25 0
0.642857 2.5 0
0.642857 2.25 0
0.857143 2.5 0
0.857143 2.25 0
0.857143 2.5 0
0.857143 2.25 0
1.07143 2.5 0
1.07143 2.25 0
1.07143 2.5 0
1.07143 2.25 0
1.28571 2.5 0
1.28571 2.25 0
0.214286 0.75 0
0.321429 0.75 0
0.214286 0.875 0
0.321429 0.875 0
0.321429 0.75 0
0.428571 0.75 0
0.321429 0.875 0
0.428571 0.875 0
0.214286 0.875 0
0.321429 0.875 0
0.214286 1 0
0.321429 1 0
0.321429 0.875 0
0.428571 0.875 0
0.321429 1 0
0.428571 1 0
0.428571 0.75 0
0.535714 0.75 0
0.428571 0.875 0
0.535714 0.875 0
0.535714 0.75 0
0.642857 0.75 0
0.535714 0.875 0
0.642857 0.875 0
0.428571 0.875 0
0.535714 0.875 0
0.428571 1 0
0.535714 1 0
0.535714 0.875 0
0.642857 0.875 0
0.535714 1 0
0.642857 1 0
0.642857 0.75 0
0.75 0.75 0
0.642857 0.875 0
0.75 0.875 0
0.75 0.75 0
0.857143 0.75 0
0.75 0.875 0
0.857143 0.875 0
0.642857 0.875 0
0.75 0.875 0
0.642857 1 0
0.75 1 0
0.75 0.875 0
0.857143 0.875 0
0.75 1 0
0.857143 1 0
0.857143 0.75 0
0.964286 0.75 0
0.857143 0.875 0
0.964286 0.875 0
0.964286 0.75 0
1.07143 0.75 0
0.964286 0.875 0
1.07143 0.875 0
0.857143 0.875 0
0.964286 0.875 0
0.857143 1 0
0.964286 1 0
0.964286 0.875 0
1.07143 0.875 0
0.964286 1 0
1.07143 1 0
1.07143 0.75 0
1.17857 0.75 0
1.07143 0.875 0
1.17857 0.875 0
1.17857 0.75 0
1.28571 0.75 0
1.17857 0.875 0
1.28571 0.875 0
1.07143 0.875 0
1.17857 0.875 0
1.07143 1 0
1.17857 1 0
1.17857 0.875 0
1.28571 0.875 0
1.17857 1 0
1.28571 1 0
0.214286 2 0
0.214286 1.875 0
0.321429 2 0
0.321429 1.875 0
0.214286 1.875 0
0.214286 1.75 0
0.321429 1.875 0
0.321429 1.75 0
0.321429 2 0
0.321429 1.875 0
0.428571 2 0
0.428571 1.875 0
0.321429 1.875 0
0.321429 1.75 0
0.428571 1.875 0
0.428571 1.75 0
0.428571 2 0
0.428571 1.875 0
0.535714 2 0
0.535714 1.875 0
0.428571 1.875 0
0.428571 1.75 0
0.535714 1.875 0
0.535714 1.75 0
0.535714 2 0
0.535714 1.875 0
0.642857 2 0
0.642857 1.875 0
0.535714 1.875 0
0.535714 1.75 0
0.642857 1.875 0
0.642857 1.75 0
0.642857 2 0
0.642857 1.875 0
0.75 2 0
0.75 1.875 0
0.642857 1.875 0
0.642857 1.75 0
0.75 1.875 0
0.75 1.75 0
0.75 2 0
0.75 1.875 0
0.857143 2 0
0.857143 1.875 0
0.75 1.875 0
0.75 1.75 0
0.857143 1.875 0
0.857143 1.75 0
0.857143 2 0
0.857143 1.875 0
0.964286 2 0
0.964286 1.875 0
0.857143 1.875 0
0.857143 1.75 0
0.964286 1.875 0
0.964286 1.75 0
0.964286 2 0
0.964286 1.875 0
1.07143 2 0
1.07143 1.875 0
0.964286 1.875 0
0.964286 1.75 0
1.07143 1.875 0
1.07143 1.75 0
1.07143 2 0
1.07143 1.875 0
1.17857 2 0
1.17857 1.875 0
1.07143 1.875 0
1.07143 1.75 0
1.17857 1.875 0
1.17857 1.75 0
1.17857 2 0
1.17857 1.875 0
1.28571 2 0
1.28571 1.875 0
1.17857 1.875 0
1.17857 1.75 0
1.28571 1.875 0
1.28571 1.75 0
0.214286 1.25 0
0.214286 1.125 0
0.321429 1.25 0
0.321429 1.125 0
0.214286 1.125 0
0.214286 1 0
0.321429 1.125 0
0.321429 1 0
0.321429 1.25 0
0.321429 1.125 0
0.428571 1.25 0
0.428571 1.125 0
0.321429 1.125 0
0.321429 1 0
0.428571 1.125 0
0.428571 1 0
0.428571 1.25 0
0.428571 1.125 0
0.535714 1.25 0
0.535714 1.125 0
0.428571 1.125 0
0.428571 1 0
0.535714 1.125 0
0.535714 1 0
0.535714 1.25 0
0.535714 1.125 0
0.642857 1.25 0
0.642857 1.125 0
0.535714 1.125 0
0.535714 1 0
0.642857 1.125 0
0.642857 1 0
0.642857 1.25 0
0.642857 1.125 0
0.75 1.25 0
0.75 1.125 0
0.642857 1.125 0
0.642857 1 0
0.75 1.125 0
0.75 1 0
0.75 1.25 0
0.75 1.125 0
0.857143 1.25 0
0.857143 1.125 0
0.75 1.125 0
0.75 1 0
0.857143 1.125 0
0.857143 1 0
0.857143 1.25 0
0.857143 1.125 0
0.964286 1.25 0
0.964286 1.125 0
0.857143 1.125 0
0.857143 1 0
0.964286 1.125 0
0.964286 1 0
0.964286 1.25 0
0.964286 1.125 0
1.07143 1.25 0
1.07143 1.125 0
0.964286 1.125 0
0.964286 1 0
1.07143 1.125 0
1.07143 1 0
1.07143 1.25 0
1.07143 1.125 0
1.17857 1.25 0
1.17857 1.125 0
1.07143 1.125 0
1.07143 1 0
1.17857 1.125 0
1.17857 1 0
1.17857 1.25 0
1.17857 1.125 0
1.28571 1.25 0
1.28571 1.125 0
1.17857 1.125 0
1.17857 1 0
1.28571 1.125 0
1.28571 1 0
0.214286 2.25 0
0.214286 2.125 0
0.321429 2.25 0
0.321429 2.125 0
0.214286 2.125 0
0.214286 2 0
0.321429 2.125 0
0.321429 2 0
0.321429 2.25 0
0.321429 2.125 0
0.428571 2.25 0
0.428571 2.125 0
0.321429 2.125 0
0.321429 2 0
0.428571 2.125 0
0.428571 2 0
0.428571 2.25 0
0.428571 2.125 0
0.535714 2.25 0
0.535714 2.125 0
0.428571 2.125 0
0.428571 2 0
0.535714 2.125 0
0.535714 2 0
0.535714 2.25 0
0.535714 2.125 0
0.642857 2.25 0
0.642857 2.125 0
0.535714 2.125 0
0.535714 2 0
0.642857 2.125 0
0.642857 2 0
0.642857 2.25 0
0.642857 2.125 0
0.75 2.25 0
0.75 2.125 0
0.642857 2.125 0
0.642857 2 0
0.75 2.125 0
0.75 2 0
0.75 2.25 0
0.75 2.125 0
0.857143 2.25 0
0.857143 2.125 0
0.75 2.125 0
0.75 2 0
0.857143 2.125 0
0.857143 2 0
0.857143 2.25 0
0.857143 2.125 0
0.964286 2.25 0
0.964286 2.125 0
0.857143 2.125 0
0.857143 2 0
0.964286 2.125 0
0.964286 2 0
0.964286 2.25 0
0.964286 2.125 0
1.07143 2.25 0
1.07143 2.125 0
0.964286 2.125 0
0.964286 2 0
1.07143 2.125 0
1.07143 2 0
1.07143 2.25 0
1.07143 2.125 0
1.17857 2.25 0
1.17857 2.125 0
1.07143 2.125 0
1.07143 2 0
1.17857 2.125 0
1.17857 2 0
1.17857 2.25 0
1.17857 2.125 0
1.28571 2.25 0
1.28571 2.125 0
1.17857 2.125 0
1.17857 2 0
1.28571 2.125 0
1.28571 2 0
0 0.5 0
0.107143 0.5 0
0 0.625 0
0.107143 0.625 0
0.107143 0.5 0
0.214286 0.5 0
0.107143 0.625 0
0.214286 0.625 0
0 0.625 0
0.107143 0.625 0
0 0.75 0
0.107143 0.75 0
0.107143 0.625 0
0.214286 0.625 0
0.107143 0.75 0
0.214286 0.75 0
0.214286 0.5 0
0.321429 0.5 0
0.214286 0.625 0
0.321429 0.625 0
0.321429 0.5 0
0.428571 0.5 0
0.321429 0.625 0
0.428571 0.625 0
0.214286 0.625 0
0.321429 0.625 0
0.214286 0.75 0
0.321429 0.75 0
0.321429 0.625 0
0.428571 0.625 0
0.321429 0.75 0
0.428571 0.75 0
1.28571 0.5 0
1.39286 0.5 0
1.28571 0.625 0
1.39286 0.625 0
1.39286 0.5 0
1.5 0.5 0
1.39286 0.625 0
1.5 0.625 0
1.28571 0.625 0
1.39286 0.625 0
1.28571 0.75 0
1.39286 0.75 0
1.39286 0.625 0
1.5 0.625 0
1.39286 0.75 0
1.5 0.75 0
1.28571 0.75 0
1.39286 0.75 0
1.28571 0.875 0
1.39286 0.875 0
1.39286 0.75 0
1.5 0.75 0
1.39286 0.875 0
1.5 0.875 0
1.28571 0.875 0
1.39286 0.875 0
1.28571 1 0
1.39286 1 0
1.39286 0.875 0
1.5 0.875 0
1.39286 1 0
1.5 1 0
1.5 0.5 0
1.60714 0.5 0
1.5 0.625 0
1.60714 0.625 0
1.60714 0.5 0
1.71429 0.5 0
1.60714 0.625 0
1.71429 0.625 0
1.5 0.625 0
1.60714 0.625 0
1.5 0.75 0
1.60714 0.75 0
1.60714 0.625 0
1.71429 0.625 0
1.60714 0.75 0
1.71429 0.75 0
1.71429 0.5 0
1.82143 0.5 0
1.71429 0.625 0
1.82143 0.625 0
1.82143 0.5 0
1.92857 0.5 0
1.82143 0.625 0
1.92857 0.625 0
1.71429 0.625 0
1.82143 0.625 0
1.71429 0.75 0
1.82143 0.75 0
1.82143 0.625 0
1.92857 0.625 0
1.82143 0.75 0
1.92857 0.75 0
1.92857 0.5 0
2.03571 0.5 0
1.92857 0.625 0
2.03571 0.625 0
2.03571 0.5 0
2.14286 0.5 0
2.03571 0.625 0
2.14286 0.625 0
1.92857 0.625 0
2.03571 0.625 0
1.92857 0.75 0
2.03571 0.75 0
2.03571 0.625 0
2.14286 0.625 0
2.03571 0.75 0
2.14286 0.75 0
2.14286 0 0
2.25 0 0
2.14286 0.125 0
2.25 0.125 0
2.25 0 0
2.35714 0 0
2.25 0.125 0
2.35714 0.125 0
2.14286 0.125 0
2.25 0.125 0
2.14286 0.25 0
2.25 0.25 0
2.25 0.125 0
2.35714 0.125 0
2.25 0.25 0
2.35714 0.25 0
2.14286 0.25 0
2.25 0.25 0
2.14286 0.375 0
2.25 0.375 0
2.25 0.25 0
2.35714 0.25 0
2.25 0.375 0
2.35714 0.375 0
2.14286 0.375 0
2.25 0.375 0
2.14286 0.5 0
2.25 0.5 0
2.25 0.375 0
2.35714 0.375 0
2.25 0.5 0
2.35714 0.5 0
2.14286 0.5 0
2.25 0.5 0
2.14286 0.625 0
2.25 0.625 0
2.25 0.5 0
2.35714 0.5 0
2.25 0.625 0
2.35714 0.625 0
2.14286 0.625 0
2.25 0.625 0
2.14286 0.75 0
2.25 0.75 0
2.25 0.625 0
2.35714 0.625 0
2.25 0.75 0
2.35714 0.75 0
2.35714 0 0
2.46429 0 0
[...]
POINT_DATA 3648
VECTORS velocity double
0 0 0
0 0 0
0 0 0
-0.0115787 0.0130278 0
0 0 0
-0.0115787 0.0130278 0
0 0 0
-0.00157883 0.0285227 0
0 0 0
0 0 0
-0.0115787 0.0130278 0
-0.0343693 0.0133411 0
-0.0115787 0.0130278 0
-0.0343693 0.0133411 0
-0.00157883 0.0285227 0
-0.00175158 0.0249901 0
0 0 0
0 0 0
-0.0343693 0.0133411 0
-0.0523653 0.00804697 0
-0.0343693 0.0133411 0
-0.0523653 0.00804697 0
-0.00175158 0.0249901 0
-0.00268484 0.018523 0
-0.00175158 0.0249901 0
-0.00268484 0.018523 0
0.0206365 0.0158479 0
0.0357918 0.0116109 0
0 0 0
0 0 0
-0.0523653 0.00804697 0
-0.0585881 -0.000465501 0
-0.0523653 0.00804697 0
-0.0585881 -0.000465501 0
-0.00268484 0.018523 0
0.00327401 -0.0117191 0
-0.00268484 0.018523 0
0.00327401 -0.0117191 0
0.0357918 0.0116109 0
0.0347063 -0.010386 0
0 0 0
0 0 0
-0.0585881 -0.000465501 0
-0.0484379 -0.0110615 0
-0.0585881 -0.000465501 0
-0.0484379 -0.0110615 0
0.00327401 -0.0117191 0
0.0072434 -0.0161282 0
0.00327401 -0.0117191 0
0.0072434 -0.0161282 0
0.0347063 -0.010386 0
0.017494 -0.00104181 0
0 0 0
0 0 0
-0.0484379 -0.0110615 0
-0.00752458 -0.0389577 0
-0.0484379 -0.0110615 0
-0.00752458 -0.0389577 0
0.0072434 -0.0161282 0
-0.0201839 -0.0497958 0
0.0072434 -0.0161282 0
-0.0201839 -0.0497958 0
0.017494 -0.00104181 0
0.00821961 -0.0226688 0
0 0 0
0 0 0
-0.00752458 -0.0389577 0
0.0727987 -0.0558961 0
-0.00752458 -0.0389577 0
0.0727987 -0.0558961 0
-0.0201839 -0.0497958 0
-0.0671904 -0.0821124 0
0 0 0
0 0 0
0.0727987 -0.0558961 0
0.0818262 0.0457157 0
0.0727987 -0.0558961 0
0.0818262 0.0457157 0
-0.0671904 -0.0821124 0
-0.0661147 0.057843 0
0 0 0
0 0 0
0.0818262 0.0457157 0
0.0280878 0.0167594 0
0.0818262 0.0457157 0
0.0280878 0.0167594 0
-0.0661147 0.057843 0
-0.0422477 0.0402892 0
0 0 0
0 0 0
0.0280878 0.0167594 0
-0.0103979 0.026925 0
0.0280878 0.0167594 0
-0.0103979 0.026925 0
-0.0422477 0.0402892 0
-0.0117794 0.0123156 0
0 0 0
0 0 0
0 0 0
-0.011681 -0.0131408 0
0 0 0
-0.011681 -0.0131408 0
0 0 0
-0.0346218 -0.0133995 0
0 0 0
-0.0346218 -0.0133995 0
0 0 0
-0.0525834 -0.00795817 0
0 0 0
-0.0525834 -0.00795817 0
0 0 0
-0.0586307 0.000572512 0
0 0 0
-0.0586307 0.000572512 0
0 0 0
-0.0484166 0.0110323 0
0 0 0
-0.0484166 0.0110323 0
0 0 0
-0.00744008 0.039082 0
0 0 0
-0.00744008 0.039082 0
0 0 0
0.0729446 0.0558474 0
0 0 0
0.0729446 0.0558474 0
0 0 0
0.0819197 -0.0457164 0
0 0 0
0.0819197 -0.0457164 0
0 0 0
0.0282405 -0.0167027 0
0 0 0
0.0282405 -0.0167027 0
0 0 0
-0.0103042 -0.0270414 0
0 0 0
0 0 0
-0.011681 -0.0131408 0
-0.00159164 -0.028774 0
-0.011681 -0.0131408 0
-0.00159164 -0.028774 0
-0.0346218 -0.0133995 0
-0.00172598 -0.0250463 0
-0.0346218 -0.0133995 0
-0.00172598 -0.0250463 0
-0.0525834 -0.00795817 0
-0.00261067 -0.018337 0
-0.0525834 -0.00795817 0
-0.00261067 -0.018337 0
-0.0586307 0.000572512 0
0.00339743 0.0120023 0
-0.0586307 0.000572512 0
0.00339743 0.0120023 0
-0.0484166 0.0110323 0
0.00744334 0.016082 0
-0.0484166 0.0110323 0
0.00744334 0.016082 0
-0.00744008 0.039082 0
-0.0201615 0.0498011 0
-0.00744008 0.039082 0
-0.0201615 0.0498011 0
0.0729446 0.0558474 0
-0.0672544 0.0821273 0
0.0729446 0.0558474 0
-0.0672544 0.0821273 0
0.0819197 -0.0457164 0
-0.0661092 -0.057862 0
0.0819197 -0.0457164 0
-0.0661092 -0.057862 0
0.0282405 -0.0167027 0
-0.0422522 -0.040167 0
0.0282405 -0.0167027 0
-0.0422522 -0.040167 0
-0.0103042 -0.0270414 0
-0.0117887 -0.0125616 0
-0.00172598 -0.0250463 0
0.0207873 -0.0159171 0
-0.00261067 -0.018337 0
0.0358723 -0.0114392 0
-0.00261067 -0.018337 0
0.0358723 -0.0114392 0
0.00339743 0.0120023 0
0.0346517 0.0105693 0
0.00339743 0.0120023 0
0.0346517 0.0105693 0
0.00744334 0.016082 0
0.0172669 0.000963325 0
0.00744334 0.016082 0
0.0172669 0.000963325 0
-0.0201615 0.0498011 0
0.00808437 0.0226151 0
0.00662689 0.0210915 0
0.0152953 0.0227877 0
0.00344099 0.0117664 0
0.010716 0.0133661 0
0.0152953 0.0227877 0
0.0206365 0.0158479 0
0.010716 0.0133661 0
0.0195914 0.00887337 0
0.00344099 0.0117664 0
0.010716 0.0133661 0
0.052008 -0.00336196 0
0.0740596 -0.00500967 0
0.010716 0.0133661 0
0.0195914 0.00887337 0
0.0740596 -0.00500967 0
0.09296 -0.00488624 0
0.0206365 0.0158479 0
0.0276834 0.0132387 0
0.0195914 0.00887337 0
0.0249399 0.00600124 0
0.0276834 0.0132387 0
0.0357918 0.0116109 0
0.0249399 0.00600124 0
0.0296667 0.00421233 0
0.0195914 0.00887337 0
0.0249399 0.00600124 0
0.09296 -0.00488624 0
0.109314 -0.00575222 0
0.0249399 0.00600124 0
0.0296667 0.00421233 0
0.109314 -0.00575222 0
0.123235 -0.00633376 0
0.0357918 0.0116109 0
0.0397954 0.00148142 0
0.0296667 0.00421233 0
0.0330483 0.000771668 0
0.0397954 0.00148142 0
0.0347063 -0.010386 0
0.0330483 0.000771668 0
0.0326974 -0.00267584 0
0.0296667 0.00421233 0
0.0330483 0.000771668 0
0.123235 -0.00633376 0
0.135362 -0.00747297 0
0.0330483 0.000771668 0
0.0326974 -0.00267584 0
0.135362 -0.00747297 0
0.146226 -0.00746823 0
0.0347063 -0.010386 0
0.0256408 -0.00682791 0
0.0326974 -0.00267584 0
0.0316363 -0.0023483 0
0.0256408 -0.00682791 0
0.017494 -0.00104181 0
0.0316363 -0.0023483 0
0.0354401 -0.000217005 0
0.0326974 -0.00267584 0
0.0316363 -0.0023483 0
0.146226 -0.00746823 0
0.155884 -0.00850563 0
0.0316363 -0.0023483 0
0.0354401 -0.000217005 0
0.155884 -0.00850563 0
0.164003 -0.00893829 0
0.017494 -0.00104181 0
0.0112458 -0.0101734 0
0.0354401 -0.000217005 0
0.0385078 -0.00696402 0
0.0112458 -0.0101734 0
0.00821961 -0.0226688 0
0.0385078 -0.00696402 0
0.030914 -0.0129519 0
0.0354401 -0.000217005 0
0.0385078 -0.00696402 0
0.164003 -0.00893829 0
0.17068 -0.0103552 0
0.0385078 -0.00696402 0
0.030914 -0.0129519 0
0.17068 -0.0103552 0
0.176512 -0.00773998 0
0.0520079 0.00336704 0
0.240611 0.013248 0
0.0740818 0.00500614 0
0.23357 0.0122605 0
0.240611 0.013248 0
0.157903 0.00657757 0
0.23357 0.0122605 0
0.153796 0.00622279 0
0.0740818 0.00500614 0
0.23357 0.0122605 0
0.0930069 0.00488257 0
0.226967 0.0111989 0
0.23357 0.0122605 0
0.153796 0.00622279 0
0.226967 0.0111989 0
0.150146 0.00566094 0
0.0930069 0.00488257 0
0.226967 0.0111989 0
0.109388 0.00575838 0
0.220692 0.0102002 0
0.226967 0.0111989 0
0.150146 0.00566094 0
0.220692 0.0102002 0
0.14695 0.00528373 0
0.109388 0.00575838 0
0.220692 0.0102002 0
0.123338 0.00635234 0
0.214655 0.00996401 0
0.220692 0.0102002 0
0.14695 0.00528373 0
0.214655 0.00996401 0
0.144062 0.00513311 0
0.123338 0.00635234 0
0.214655 0.00996401 0
0.13549 0.00751176 0
0.208637 0.00951891 0
0.214655 0.00996401 0
0.144062 0.00513311 0
0.208637 0.00951891 0
0.141441 0.00494474 0
0.13549 0.00751176 0
0.208637 0.00951891 0
0.146374 0.00750587 0
0.20247 0.00945365 0
0.208637 0.00951891 0
0.141441 0.00494474 0
0.20247 0.00945365 0
0.139051 0.00477066 0
0.146374 0.00750587 0
0.20247 0.00945365 0
0.156054 0.00854134 0
0.196141 0.00899765 0
0.20247 0.00945365 0
0.139051 0.00477066 0
0.196141 0.00899765 0
0.136863 0.00454251 0
0.156054 0.00854134 0
0.196141 0.00899765 0
0.164188 0.00897115 0
0.189825 0.00941653 0
0.196141 0.00899765 0
0.136863 0.00454251 0
0.189825 0.00941653 0
0.134777 0.00475511 0
0.164188 0.00897115 0
0.189825 0.00941653 0
0.170874 0.0103931 0
0.183413 0.00875642 0
0.189825 0.00941653 0
0.134777 0.00475511 0
0.183413 0.00875642 0
0.132865 0.00409114 0
0.170874 0.0103931 0
0.183413 0.00875642 0
0.176709 0.00776405 0
0.176959 0.00755658 0
0.183413 0.00875642 0
0.132865 0.00409114 0
0.176959 0.00755658 0
0.131335 0.003336 0
0.158125 -0.00658571 0
0.240539 -0.013246 0
0.15401 -0.00623024 0
0.233519 -0.0122628 0
0.240539 -0.013246 0
0.052008 -0.00336196 0
0.233519 -0.0122628 0
0.0740596 -0.00500967 0
0.15401 -0.00623024 0
0.233519 -0.0122628 0
0.150353 -0.00566539 0
0.226935 -0.0111988 0
0.233519 -0.0122628 0
0.0740596 -0.00500967 0
0.226935 -0.0111988 0
0.09296 -0.00488624 0
0.150353 -0.00566539 0
0.226935 -0.0111988 0
0.14715 -0.00528405 0
0.220679 -0.0101939 0
0.226935 -0.0111988 0
0.09296 -0.00488624 0
0.220679 -0.0101939 0
0.109314 -0.00575222 0
0.14715 -0.00528405 0
0.220679 -0.0101939 0
0.144257 -0.00512922 0
0.214668 -0.00994636 0
0.220679 -0.0101939 0
0.109314 -0.00575222 0
0.214668 -0.00994636 0
0.123235 -0.00633376 0
0.144257 -0.00512922 0
0.214668 -0.00994636 0
0.141632 -0.00493771 0
0.208683 -0.00949555 0
0.214668 -0.00994636 0
0.123235 -0.00633376 0
0.208683 -0.00949555 0
0.135362 -0.00747297 0
0.141632 -0.00493771 0
0.208683 -0.00949555 0
0.139238 -0.004763 0
0.202554 -0.00942742 0
0.208683 -0.00949555 0
0.135362 -0.00747297 0
0.202554 -0.00942742 0
0.146226 -0.00746823 0
0.139238 -0.004763 0
0.202554 -0.00942742 0
0.137043 -0.00453549 0
0.196264 -0.00897661 0
0.202554 -0.00942742 0
0.146226 -0.00746823 0
0.196264 -0.00897661 0
0.155884 -0.00850563 0
0.137043 -0.00453549 0
0.196264 -0.00897661 0
0.134948 -0.00474677 0
0.189984 -0.00939616 0
0.196264 -0.00897661 0
0.155884 -0.00850563 0
0.189984 -0.00939616 0
0.164003 -0.00893829 0
0.134948 -0.00474677 0
0.189984 -0.00939616 0
0.133026 -0.00408894 0
0.183605 -0.00874306 0
0.189984 -0.00939616 0
0.164003 -0.00893829 0
0.183605 -0.00874306 0
0.17068 -0.0103552 0
0.133026 -0.00408894 0
0.183605 -0.00874306 0
0.131484 -0.00333556 0
0.177183 -0.00754687 0
0.183605 -0.00874306 0
0.17068 -0.0103552 0
0.177183 -0.00754687 0
0.176512 -0.00773998 0
0.00673455 -0.0212749 0
0.00348232 -0.0118557 0
0.0154455 -0.0229314 0
0.0108652 -0.0134289 0
0.00348232 -0.0118557 0
0.0520079 0.00336704 0
0.0108652 -0.0134289 0
0.0740818 0.00500614 0
0.0154455 -0.0229314 0
0.0108652 -0.0134289 0
0.0207873 -0.0159171 0
0.0198147 -0.00893714 0
0.0108652 -0.0134289 0
0.0740818 0.00500614 0
0.0198147 -0.00893714 0
0.0930069 0.00488257 0
0.0207873 -0.0159171 0
0.0198147 -0.00893714 0
0.0277844 -0.0131884 0
0.0251822 -0.00599228 0
0.0198147 -0.00893714 0
0.0930069 0.00488257 0
0.0251822 -0.00599228 0
0.109388 0.00575838 0
0.0277844 -0.0131884 0
0.0251822 -0.00599228 0
0.0358723 -0.0114392 0
0.0298175 -0.0041291 0
0.0251822 -0.00599228 0
0.109388 0.00575838 0
0.0298175 -0.0041291 0
0.123338 0.00635234 0
0.0358723 -0.0114392 0
0.0298175 -0.0041291 0
0.0398403 -0.00130559 0
0.0330775 -0.000687787 0
0.0298175 -0.0041291 0
0.123338 0.00635234 0
0.0330775 -0.000687787 0
0.13549 0.00751176 0
0.0398403 -0.00130559 0
0.0330775 -0.000687787 0
0.0346517 0.0105693 0
0.0326424 0.00274076 0
0.0330775 -0.000687787 0
0.13549 0.00751176 0
0.0326424 0.00274076 0
0.146374 0.00750587 0
0.0346517 0.0105693 0
0.0326424 0.00274076 0
0.0254771 0.00689193 0
0.0315461 0.00236979 0
0.0326424 0.00274076 0
0.146374 0.00750587 0
0.0315461 0.00236979 0
0.156054 0.00854134 0
0.0254771 0.00689193 0
0.0315461 0.00236979 0
0.0172669 0.000963325 0
0.0354042 0.000179044 0
0.0315461 0.00236979 0
0.156054 0.00854134 0
0.0354042 0.000179044 0
0.164188 0.00897115 0
0.0172669 0.000963325 0
0.0354042 0.000179044 0
0.0110207 0.0100881 0
0.0385653 0.00695431 0
0.0354042 0.000179044 0
0.164188 0.00897115 0
0.0385653 0.00695431 0
0.170874 0.0103931 0
0.0110207 0.0100881 0
0.0385653 0.00695431 0
0.00808437 0.0226151 0
0.0310114 0.0129741 0
0.0385653 0.00695431 0
0.170874 0.0103931 0
0.0310114 0.0129741 0
0.176709 0.00776405 0
0 0 0
-0.000356758 0.0146185 0
0 0 0
0.00119504 0.0138894 0
-0.000356758 0.0146185 0
-0.00157883 0.0285227 0
0.00119504 0.0138894 0
0.00275775 0.0290393 0
0 0 0
0.00119504 0.0138894 0
0 0 0
9.71939e-05 0.0126639 0
0.00119504 0.0138894 0
0.00275775 0.0290393 0
9.71939e-05 0.0126639 0
0.00662689 0.0210915 0
-0.00157883 0.0285227 0
-0.00244892 0.0266989 0
0.00275775 0.0290393 0
0.00397222 0.0260375 0
-0.00244892 0.0266989 0
-0.00175158 0.0249901 0
0.00397222 0.0260375 0
0.00668276 0.0218883 0
0.00275775 0.0290393 0
0.00397222 0.0260375 0
0.00662689 0.0210915 0
0.0152953 0.0227877 0
0.00397222 0.0260375 0
0.00668276 0.0218883 0
0.0152953 0.0227877 0
0.0206365 0.0158479 0
-0.0201839 -0.0497958 0
-0.0427373 -0.0675963 0
-0.00956025 -0.0301999 0
-0.0304951 -0.0365169 0
-0.0427373 -0.0675963 0
-0.0671904 -0.0821124 0
-0.0304951 -0.0365169 0
-0.0616352 -0.0486559 0
-0.00956025 -0.0301999 0
-0.0304951 -0.0365169 0
0.00821961 -0.0226688 0
-0.00400281 -0.00495332 0
-0.0304951 -0.0365169 0
-0.0616352 -0.0486559 0
-0.00400281 -0.00495332 0
-0.0378817 -0.00492539 0
0.00821961 -0.0226688 0
-0.00400281 -0.00495332 0
0.030914 -0.0129519 0
0.0289556 0.00154208 0
-0.00400281 -0.00495332 0
-0.0378817 -0.00492539 0
0.0289556 0.00154208 0
0.0458671 0.00822536 0
0.030914 -0.0129519 0
0.0289556 0.00154208 0
0.176512 -0.00773998 0
0.180966 -0.00710019 0
0.0289556 0.00154208 0
0.0458671 0.00822536 0
0.180966 -0.00710019 0
0.182662 -0.0047216 0
-0.0671904 -0.0821124 0
-0.0801076 -0.0102238 0
-0.0616352 -0.0486559 0
-0.075916 -0.0107914 0
-0.0801076 -0.0102238 0
-0.0661147 0.057843 0
-0.075916 -0.0107914 0
-0.0625188 0.02597 0
-0.0616352 -0.0486559 0
-0.075916 -0.0107914 0
-0.0378817 -0.00492539 0
-0.0428933 -0.0311222 0
-0.075916 -0.0107914 0
-0.0625188 0.02597 0
-0.0428933 -0.0311222 0
-0.038949 0.0253017 0
-0.0661147 0.057843 0
-0.0458629 0.0484659 0
-0.0625188 0.02597 0
-0.0480533 0.0397307 0
-0.0458629 0.0484659 0
-0.0422477 0.0402892 0
-0.0480533 0.0397307 0
-0.0329085 0.0270719 0
-0.0625188 0.02597 0
-0.0480533 0.0397307 0
-0.038949 0.0253017 0
-0.0424465 0.027991 0
-0.0480533 0.0397307 0
-0.0329085 0.0270719 0
-0.0424465 0.027991 0
-0.0226876 -0.00181134 0
-0.0422477 0.0402892 0
-0.0372768 0.0271645 0
-0.0329085 0.0270719 0
-0.00168134 -0.0019746 0
-0.0372768 0.0271645 0
-0.0117794 0.0123156 0
-0.00168134 -0.0019746 0
0.0135589 -0.00657231 0
-0.0329085 0.0270719 0
-0.00168134 -0.0019746 0
-0.0226876 -0.00181134 0
-0.0231823 -0.00871233 0
-0.00168134 -0.0019746 0
0.0135589 -0.00657231 0
-0.0231823 -0.00871233 0
-0.029563 -0.00986295 0
0 0 0
0 0 0
-0.00306213 0.00667718 0
-0.0381882 0.0341478 0
0 0 0
0 0 0
-0.0381882 0.0341478 0
-0.0374863 -0.0338232 0
-0.00306213 0.00667718 0
-0.0381882 0.0341478 0
-0.0103979 0.026925 0
0.0126439 0.0278968 0
-0.0381882 0.0341478 0
-0.0374863 -0.0338232 0
0.0126439 0.0278968 0
0.0145082 -0.0298079 0
-0.0103979 0.026925 0
0.0126439 0.0278968 0
-0.0113572 0.0368859 0
0.00718994 -0.0294944 0
0.0126439 0.0278968 0
0.0145082 -0.0298079 0
0.00718994 -0.0294944 0
-0.00347798 0.0371259 0
-0.0113572 0.0368859 0
0.00718994 -0.0294944 0
-0.0117794 0.0123156 0
-0.00643775 -0.0309374 0
0.00718994 -0.0294944 0
-0.00347798 0.0371259 0
-0.00643775 -0.0309374 0
-0.0206046 0.066673 0
-0.0117794 0.0123156 0
-0.00643775 -0.0309374 0
0.0135589 -0.00657231 0
-0.00990518 0.00862287 0
-0.00643775 -0.0309374 0
-0.0206046 0.066673 0
-0.00990518 0.00862287 0
-0.0208267 0.0558341 0
0.0135589 -0.00657231 0
-0.00990518 0.00862287 0
-0.029563 -0.00986295 0
-0.0112408 0.0177989 0
-0.00990518 0.00862287 0
-0.0208267 0.0558341 0
-0.0112408 0.0177989 0
0.00982308 0.0350209 0
0 0 0
0 0 0
-0.0374863 -0.0338232 0
-0.0182492 0.010277 0
0 0 0
0 0 0
-0.0182492 0.010277 0
-0.023116 -0.00370836 0
-0.0374863 -0.0338232 0
-0.0182492 0.010277 0
0.0145082 -0.0298079 0
-0.0292041 0.0336399 0
-0.0182492 0.010277 0
-0.023116 -0.00370836 0
-0.0292041 0.0336399 0
-0.044146 -0.00227528 0
0.0145082 -0.0298079 0
-0.0292041 0.0336399 0
-0.00347798 0.0371259 0
-0.0283575 0.0465931 0
-0.0292041 0.0336399 0
-0.044146 -0.00227528 0
-0.0283575 0.0465931 0
-0.026789 0.00126493 0
-0.00347798 0.0371259 0
-0.0283575 0.0465931 0
-0.0206046 0.066673 0
-0.00357969 0.0261121 0
-0.0283575 0.0465931 0
-0.026789 0.00126493 0
-0.00357969 0.0261121 0
0.0180183 -0.005156 0
-0.0206046 0.066673 0
-0.00357969 0.0261121 0
-0.0208267 0.0558341 0
-0.0160815 0.0114223 0
-0.00357969 0.0261121 0
0.0180183 -0.005156 0
-0.0160815 0.0114223 0
-0.0158027 -0.015829 0
-0.0208267 0.0558341 0
-0.0160815 0.0114223 0
0.00982308 0.0350209 0
0.0203962 0.0139451 0
-0.0160815 0.0114223 0
-0.0158027 -0.015829 0
0.0203962 0.0139451 0
0.00557299 -0.00148609 0
0 0 0
0 0 0
-0.023116 -0.00370836 0
-0.0169365 -0.0040687 0
0 0 0
0 0 0
-0.0169365 -0.0040687 0
-0.00404297 -0.0107024 0
-0.023116 -0.00370836 0
-0.0169365 -0.0040687 0
-0.044146 -0.00227528 0
-0.0421585 -0.0157093 0
-0.0169365 -0.0040687 0
-0.00404297 -0.0107024 0
-0.0421585 -0.0157093 0
-0.0285524 -0.0294555 0
-0.044146 -0.00227528 0
-0.0421585 -0.0157093 0
-0.026789 0.00126493 0
-0.0303223 -0.0177948 0
-0.0421585 -0.0157093 0
-0.0285524 -0.0294555 0
-0.0303223 -0.0177948 0
-0.030993 -0.0424035 0
-0.026789 0.00126493 0
-0.0303223 -0.0177948 0
0.0180183 -0.005156 0
0.0102355 0.0013655 0
-0.0303223 -0.0177948 0
-0.030993 -0.0424035 0
0.0102355 0.0013655 0
-0.0107693 -0.036357 0
0.0180183 -0.005156 0
0.0102355 0.0013655 0
-0.0158027 -0.015829 0
-0.00401288 0.0073324 0
0.0102355 0.0013655 0
-0.0107693 -0.036357 0
-0.00401288 0.0073324 0
-0.000712862 -0.0217132 0
-0.0158027 -0.015829 0
-0.00401288 0.0073324 0
0.00557299 -0.00148609 0
0.00145117 -0.0166552 0
-0.00401288 0.0073324 0
-0.000712862 -0.0217132 0
0.00145117 -0.0166552 0
0.00274412 -0.00330538 0
0 0 0
0 0 0
-0.00404297 -0.0107024 0
0.00265038 0.00291682 0
0 0 0
0 0 0
0.00265038 0.00291682 0
0 0 0
-0.00404297 -0.0107024 0
0.00265038 0.00291682 0
-0.0285524 -0.0294555 0
-0.0107183 -0.00678492 0
0.00265038 0.00291682 0
0 0 0
-0.0107183 -0.00678492 0
0 0 0
-0.0285524 -0.0294555 0
-0.0107183 -0.00678492 0
-0.030993 -0.0424035 0
-0.0132935 -0.0353535 0
-0.0107183 -0.00678492 0
0 0 0
-0.0132935 -0.0353535 0
0 0 0
-0.030993 -0.0424035 0
-0.0132935 -0.0353535 0
-0.0107693 -0.036357 0
-0.0099819 -0.0627992 0
-0.0132935 -0.0353535 0
0 0 0
-0.0099819 -0.0627992 0
0 0 0
-0.0107693 -0.036357 0
-0.0099819 -0.0627992 0
-0.000712862 -0.0217132 0
-0.0020736 -0.0770157 0
-0.0099819 -0.0627992 0
0 0 0
-0.0020736 -0.0770157 0
0 0 0
-0.000712862 -0.0217132 0
-0.0020736 -0.0770157 0
0.00274412 -0.00330538 0
-0.00531417 -0.0856455 0
-0.0020736 -0.0770157 0
0 0 0
-0.00531417 -0.0856455 0
0 0 0
0.176709 0.00776405 0
0.176959 0.00755658 0
0.181164 0.00712728 0
0.171544 0.00570882 0
0.176959 0.00755658 0
0.131335 0.003336 0
0.171544 0.00570882 0
0.13017 0.00259917 0
0.181164 0.00712728 0
0.171544 0.00570882 0
0.182851 0.00473403 0
0.168295 0.00372086 0
0.171544 0.00570882 0
0.13017 0.00259917 0
0.168295 0.00372086 0
0.129044 0.00183066 0
0.165963 0.0067971 0
0.107499 0.00597075 0
0.161928 0.00664764 0
0.11007 0.00577716 0
0.107499 0.00597075 0
0.227791 3.10411e-06 0
0.11007 0.00577716 0
0.215214 2.93258e-06 0
0.161928 0.00664764 0
0.11007 0.00577716 0
0.157903 0.00657757 0
0.112205 0.00528069 0
0.11007 0.00577716 0
0.215214 2.93258e-06 0
0.112205 0.00528069 0
0.203733 2.95546e-06 0
0.157903 0.00657757 0
0.112205 0.00528069 0
0.153796 0.00622279 0
0.114165 0.00503122 0
0.112205 0.00528069 0
0.203733 2.95546e-06 0
0.114165 0.00503122 0
0.193158 3.00344e-06 0
0.153796 0.00622279 0
0.114165 0.00503122 0
0.150146 0.00566094 0
0.115867 0.00455342 0
0.114165 0.00503122 0
0.193158 3.00344e-06 0
0.115867 0.00455342 0
0.183479 3.56983e-06 0
0.150146 0.00566094 0
0.115867 0.00455342 0
0.14695 0.00528373 0
0.117284 0.00432105 0
0.115867 0.00455342 0
0.183479 3.56983e-06 0
0.117284 0.00432105 0
0.174712 4.23927e-06 0
0.14695 0.00528373 0
0.117284 0.00432105 0
0.144062 0.00513311 0
0.118383 0.00391453 0
0.117284 0.00432105 0
0.174712 4.23927e-06 0
0.118383 0.00391453 0
0.166854 4.79856e-06 0
0.144062 0.00513311 0
0.118383 0.00391453 0
0.141441 0.00494474 0
0.119122 0.0038589 0
0.118383 0.00391453 0
0.166854 4.79856e-06 0
0.119122 0.0038589 0
0.159814 5.38526e-06 0
0.141441 0.00494474 0
0.119122 0.0038589 0
0.139051 0.00477066 0
0.119515 0.00343894 0
0.119122 0.0038589 0
0.159814 5.38526e-06 0
0.119515 0.00343894 0
0.153454 5.24545e-06 0
0.139051 0.00477066 0
0.119515 0.00343894 0
0.136863 0.00454251 0
0.11956 0.00345627 0
0.119515 0.00343894 0
0.153454 5.24545e-06 0
0.11956 0.00345627 0
0.147758 6.4116e-06 0
0.136863 0.00454251 0
0.11956 0.00345627 0
0.134777 0.00475511 0
0.119323 0.00309274 0
0.11956 0.00345627 0
0.147758 6.4116e-06 0
0.119323 0.00309274 0
0.142736 6.0899e-06 0
0.134777 0.00475511 0
0.119323 0.00309274 0
0.132865 0.00409114 0
0.118958 0.00309089 0
0.119323 0.00309274 0
0.142736 6.0899e-06 0
0.118958 0.00309089 0
0.138235 4.22319e-06 0
0.132865 0.00409114 0
0.118958 0.00309089 0
0.131335 0.003336 0
0.118636 0.00235628 0
0.118958 0.00309089 0
0.138235 4.22319e-06 0