# vtk DataFile Version 3.0
#This file was generated by the deal.II library on 2026/3/26 at 11:19:32
ASCII
DATASET UNSTRUCTURED_GRID

POINTS 3648 double
0 0 0
0.214286 0 0
0 0.25 0
0.214286 0.25 0
0 0.25 0
0.214286 0.25 0
0 0.5 0
0.214286 0.5 0
0.214286 0 0
0.428571 0 0
0.214286 0.25 0
0.428571 0.25 0
0.214286 0.25 0
0.428571 0.25 0
0.214286 0.5 0
0.428571 0.5 0
0.428571 0 0
0.642857 0 0
0.428571 0.25 0
0.642857 0.25 0
0.428571 0.25 0
0.642857 0.25 0
0.428571 0.5 0
0.642857 0.5 0
0.428571 0.5 0
0.642857 0.5 0
0.428571 0.75 0
0.642857 0.75 0
0.642857 0 0
0.857143 0 0
0.642857 0.25 0
0.857143 0.25 0
0.642857 0.25 0
0.857143 0.25 0
0.642857 0.5 0
0.857143 0.5 0
0.642857 0.5 0
0.857143 0.5 0
0.642857 0.75 0
0.857143 0.75 0
0.857143 0 0
1.07143 0 0
0.857143 0.25 0
1.07143 0.25 0
0.857143 0.25 0
1.07143 0.25 0
0.857143 0.5 0
1.07143 0.5 0
0.857143 0.5 0
1.07143 0.5 0
0.857143 0.75 0
1.07143 0.75 0
1.07143 0 0
1.28571 0 0
1.07143 0.25 0
1.28571 0.25 0
1.07143 0.25 0
1.28571 0.25 0
1.07143 0.5 0
1.28571 0.5 0
1.07143 0.5 0
1.28571 0.5 0
1.07143 0.75 0
1.28571 0.75 0
1.28571 0 0
1.5 0 0
1.28571 0.25 0
1.5 0.25 0
1.28571 0.25 0
1.5 0.25 0
1.28571 0.5 0
1.5 0.5 0
1.5 0 0
1.71429 0 0
1.5 0.25 0
1.71429 0.25 0
1.5 0.25 0
1.71429 0.25 0
1.5 0.5 0
1.71429 0.5 0
1.71429 0 0
1.92857 0 0
1.71429 0.25 0
1.92857 0.25 0
1.71429 0.25 0
1.92857 0.25 0
1.71429 0.5 0
1.92857 0.5 0
1.92857 0 0
2.14286 0 0
1.92857 0.25 0
2.14286 0.25 0
1.92857 0.25 0
2.14286 0.25 0
1.92857 0.5 0
2.14286 0.5 0
0 3 0
0 2.75 0
0.214286 3 0
0.214286 2.75 0
0.214286 3 0
0.214286 2.75 0
0.428571 3 0
0.428571 2.75 0
0.428571 3 0
0.428571 2.75 0
0.642857 3 0
0.642857 2.75 0
0.642857 3 0
0.642857 2.75 0
0.857143 3 0
0.857143 2.75 0
0.857143 3 0
0.857143 2.75 0
1.07143 3 0
1.07143 2.75 0
1.07143 3 0
1.07143 2.75 0
1.28571 3 0
1.28571 2.75 0
1.28571 3 0
1.28571 2.75 0
1.5 3 0
1.5 2.75 0
1.5 3 0
1.5 2.75 0
1.71429 3 0
1.71429 2.75 0
1.71429 3 0
1.71429 2.75 0
1.92857 3 0
1.92857 2.75 0
1.92857 3 0
1.92857 2.75 0
2.14286 3 0
2.14286 2.75 0
0 2.75 0
0 2.5 0
0.214286 2.75 0
0.214286 2.5 0
0.214286 2.75 0
0.214286 2.5 0
0.428571 2.75 0
0.428571 2.5 0
0.428571 2.75 0
0.428571 2.5 0
0.642857 2.75 0
0.642857 2.5 0
0.642857 2.75 0
0.642857 2.5 0
0.857143 2.75 0
0.857143 2.5 0
0.857143 2.75 0
0.857143 2.5 0
1.07143 2.75 0
1.07143 2.5 0
1.07143 2.75 0
1.07143 2.5 0
1.28571 2.75 0
1.28571 2.5 0
1.28571 2.75 0
1.28571 2.5 0
1.5 2.75 0
1.5 2.5 0
1.5 2.75 0
1.5 2.5 0
1.71429 2.75 0
1.71429 2.5 0
1.71429 2.75 0
1.71429 2.5 0
1.92857 2.75 0
1.92857 2.5 0
1.92857 2.75 0
1.92857 2.5 0
2.14286 2.75 0
2.14286 2.5 0
0.428571 2.5 0
0.428571 2.25 0
0.642857 2.5 0
0.642857 2.25 0
0.642857 2.5 0
0.642857 2.25 0
0.857143 2.5 0
0.857143 2.25 0
0.857143 2.5 0
0.857143 2.25 0
1.07143 2.5 0
1.07143 2.25 0
1.07143 2.5 0
1.07143 2.25 0
1.28571 2.5 0
1.28571 2.25 0
0.214286 0.75 0
0.321429 0.75 0
0.214286 0.875 0
0.321429 0.875 0
0.321429 0.75 0
0.428571 0.75 0
0.321429 0.875 0
0.428571 0.875 0
0.214286 0.875 0
0.321429 0.875 0
0.214286 1 0
0.321429 1 0
0.321429 0.875 0
0.428571 0.875 0
0.321429 1 0
0.428571 1 0
0.428571 0.75 0
0.535714 0.75 0
0.428571 0.875 0
0.535714 0.875 0
0.535714 0.75 0
0.642857 0.75 0
0.535714 0.875 0
0.642857 0.875 0
0.428571 0.875 0
0.535714 0.875 0
0.428571 1 0
0.535714 1 0
0.535714 0.875 0
0.642857 0.875 0
0.535714 1 0
0.642857 1 0
0.642857 0.75 0
0.75 0.75 0
0.642857 0.875 0
0.75 0.875 0
0.75 0.75 0
0.857143 0.75 0
0.75 0.875 0
0.857143 0.875 0
0.642857 0.875 0
0.75 0.875 0
0.642857 1 0
0.75 1 0
0.75 0.875 0
0.857143 0.875 0
0.75 1 0
0.857143 1 0
0.857143 0.75 0
0.964286 0.75 0
0.857143 0.875 0
0.964286 0.875 0
0.964286 0.75 0
1.07143 0.75 0
0.964286 0.875 0
1.07143 0.875 0
0.857143 0.875 0
0.964286 0.875 0
0.857143 1 0
0.964286 1 0
0.964286 0.875 0
1.07143 0.875 0
0.964286 1 0
1.07143 1 0
1.07143 0.75 0
1.17857 0.75 0
1.07143 0.875 0
1.17857 0.875 0
1.17857 0.75 0
1.28571 0.75 0
1.17857 0.875 0
1.28571 0.875 0
1.07143 0.875 0
1.17857 0.875 0
1.07143 1 0
1.17857 1 0
1.17857 0.875 0
1.28571 0.875 0
1.17857 1 0
1.28571 1 0
0.214286 2 0
0.214286 1.875 0
0.321429 2 0
0.321429 1.875 0
0.214286 1.875 0
0.214286 1.75 0
0.321429 1.875 0
0.321429 1.75 0
0.321429 2 0
0.321429 1.875 0
0.428571 2 0
0.428571 1.875 0
0.321429 1.875 0
0.321429 1.75 0
0.428571 1.875 0
0.428571 1.75 0
0.428571 2 0
0.428571 1.875 0
0.535714 2 0
0.535714 1.875 0
0.428571 1.875 0
0.428571 1.75 0
0.535714 1.875 0
0.535714 1.75 0
0.535714 2 0
0.535714 1.875 0
0.642857 2 0
0.642857 1.875 0
0.535714 1.875 0
0.535714 1.75 0
0.642857 1.875 0
0.642857 1.75 0
0.642857 2 0
0.642857 1.875 0
0.75 2 0
0.75 1.875 0
0.642857 1.875 0
0.642857 1.75 0
0.75 1.875 0
0.75 1.75 0
0.75 2 0
0.75 1.875 0
0.857143 2 0
0.857143 1.875 0
0.75 1.875 0
0.75 1.75 0
0.857143 1.875 0
0.857143 1.75 0
0.857143 2 0
0.857143 1.875 0
0.964286 2 0
0.964286 1.875 0
0.857143 1.875 0
0.857143 1.75 0
0.964286 1.875 0
0.964286 1.75 0
0.964286 2 0
0.964286 1.875 0
1.07143 2 0
1.07143 1.875 0
0.964286 1.875 0
0.964286 1.75 0
1.07143 1.875 0
1.07143 1.75 0
1.07143 2 0
1.07143 1.875 0
1.17857 2 0
1.17857 1.875 0
1.07143 1.875 0
1.07143 1.75 0
1.17857 1.875 0
1.17857 1.75 0
1.17857 2 0
1.17857 1.875 0
1.28571 2 0
1.28571 1.875 0
1.17857 1.875 0
1.17857 1.75 0
1.28571 1.875 0
1.28571 1.75 0
0.214286 1.25 0
0.214286 1.125 0
0.321429 1.25 0
0.321429 1.125 0
0.214286 1.125 0
0.214286 1 0
0.321429 1.125 0
0.321429 1 0
0.321429 1.25 0
0.321429 1.125 0
0.428571 1.25 0
0.428571 1.125 0
0.321429 1.125 0
0.321429 1 0
0.428571 1.125 0
0.428571 1 0
0.428571 1.25 0
0.428571 1.125 0
0.535714 1.25 0
0.535714 1.125 0
0.428571 1.125 0
0.428571 1 0
0.535714 1.125 0
0.535714 1 0
0.535714 1.25 0
0.535714 1.125 0
0.642857 1.25 0
0.642857 1.125 0
0.535714 1.125 0
0.535714 1 0
0.642857 1.125 0
0.642857 1 0
0.642857 1.25 0
0.642857 1.125 0
0.75 1.25 0
0.75 1.125 0
0.642857 1.125 0
0.642857 1 0
0.75 1.125 0
0.75 1 0
0.75 1.25 0
0.75 1.125 0
0.857143 1.25 0
0.857143 1.125 0
0.75 1.125 0
0.75 1 0
0.857143 1.125 0
0.857143 1 0
0.857143 1.25 0
0.857143 1.125 0
0.964286 1.25 0
0.964286 1.125 0
0.857143 1.125 0
0.857143 1 0
0.964286 1.125 0
0.964286 1 0
0.964286 1.25 0
0.964286 1.125 0
1.07143 1.25 0
1.07143 1.125 0
0.964286 1.125 0
0.964286 1 0
1.07143 1.125 0
1.07143 1 0
1.07143 1.25 0
1.07143 1.125 0
1.17857 1.25 0
1.17857 1.125 0
1.07143 1.125 0
1.07143 1 0
1.17857 1.125 0
1.17857 1 0
1.17857 1.25 0
1.17857 1.125 0
1.28571 1.25 0
1.28571 1.125 0
1.17857 1.125 0
1.17857 1 0
1.28571 1.125 0
1.28571 1 0
0.214286 2.25 0
0.214286 2.125 0
0.321429 2.25 0
0.321429 2.125 0
0.214286 2.125 0
0.214286 2 0
0.321429 2.125 0
0.321429 2 0
0.321429 2.25 0
0.321429 2.125 0
0.428571 2.25 0
0.428571 2.125 0
0.321429 2.125 0
0.321429 2 0
0.428571 2.125 0
0.428571 2 0
0.428571 2.25 0
0.428571 2.125 0
0.535714 2.25 0
0.535714 2.125 0
0.428571 2.125 0
0.428571 2 0
0.535714 2.125 0
0.535714 2 0
0.535714 2.25 0
0.535714 2.125 0
0.642857 2.25 0
0.642857 2.125 0
0.535714 2.125 0
0.535714 2 0
0.642857 2.125 0
0.642857 2 0
0.642857 2.25 0
0.642857 2.125 0
0.75 2.25 0
0.75 2.125 0
0.642857 2.125 0
0.642857 2 0
0.75 2.125 0
0.75 2 0
0.75 2.25 0
0.75 2.125 0
0.857143 2.25 0
0.857143 2.125 0
0.75 2.125 0
0.75 2 0
0.857143 2.125 0
0.857143 2 0
0.857143 2.25 0
0.857143 2.125 0
0.964286 2.25 0
0.964286 2.125 0
0.857143 2.125 0
0.857143 2 0
0.964286 2.125 0
0.964286 2 0
0.964286 2.25 0
0.964286 2.125 0
1.07143 2.25 0
1.07143 2.125 0
0.964286 2.125 0
0.964286 2 0
1.07143 2.125 0
1.07143 2 0
1.07143 2.25 0
1.07143 2.125 0
1.17857 2.25 0
1.17857 2.125 0
1.07143 2.125 0
1.07143 2 0
1.17857 2.125 0
1.17857 2 0
1.17857 2.25 0
1.17857 2.125 0
1.28571 2.25 0
1.28571 2.125 0
1.17857 2.125 0
1.17857 2 0
1.28571 2.125 0
1.28571 2 0
0 0.5 0
0.107143 0.5 0
0 0.625 0
0.107143 0.625 0
0.107143 0.5 0
0.214286 0.5 0
0.107143 0.625 0
0.214286 0.625 0
0 0.625 0
0.107143 0.625 0
0 0.75 0
0.107143 0.75 0
0.107143 0.625 0
0.214286 0.625 0
0.107143 0.75 0
0.214286 0.75 0
0.214286 0.5 0
0.321429 0.5 0
0.214286 0.625 0
0.321429 0.625 0
0.321429 0.5 0
0.428571 0.5 0
0.321429 0.625 0
0.428571 0.625 0
0.214286 0.625 0
0.321429 0.625 0
0.214286 0.75 0
0.321429 0.75 0
0.321429 0.625 0
0.428571 0.625 0
0.321429 0.75 0
0.428571 0.75 0
1.28571 0.5 0
1.39286 0.5 0
1.28571 0.625 0
1.39286 0.625 0
1.39286 0.5 0
1.5 0.5 0
1.39286 0.625 0
1.5 0.625 0
1.28571 0.625 0
1.39286 0.625 0
1.28571 0.75 0
1.39286 0.75 0
1.39286 0.625 0
1.5 0.625 0
1.39286 0.75 0
1.5 0.75 0
1.28571 0.75 0
1.39286 0.75 0
1.28571 0.875 0
1.39286 0.875 0
1.39286 0.75 0
1.5 0.75 0
1.39286 0.875 0
1.5 0.875 0
1.28571 0.875 0
1.39286 0.875 0
1.28571 1 0
1.39286 1 0
1.39286 0.875 0
1.5 0.875 0
1.39286 1 0
1.5 1 0
1.5 0.5 0
1.60714 0.5 0
1.5 0.625 0
1.60714 0.625 0
1.60714 0.5 0
1.71429 0.5 0
1.60714 0.625 0
1.71429 0.625 0
1.5 0.625 0
1.60714 0.625 0
1.5 0.75 0
1.60714 0.75 0
1.60714 0.625 0
1.71429 0.625 0
1.60714 0.75 0
1.71429 0.75 0
1.71429 0.5 0
1.82143 0.5 0
1.71429 0.625 0
1.82143 0.625 0
1.82143 0.5 0
1.92857 0.5 0
1.82143 0.625 0
1.92857 0.625 0
1.71429 0.625 0
1.82143 0.625 0
1.71429 0.75 0
1.82143 0.75 0
1.82143 0.625 0
1.92857 0.625 0
1.82143 0.75 0
1.92857 0.75 0
1.92857 0.5 0
2.03571 0.5 0
1.92857 0.625 0
2.03571 0.625 0
2.03571 0.5 0
2.14286 0.5 0
2.03571 0.625 0
2.14286 0.625 0
1.92857 0.625 0
2.03571 0.625 0
1.92857 0.75 0
2.03571 0.75 0
2.03571 0.625 0
2.14286 0.625 0
2.03571 0.75 0
2.14286 0.75 0
2.14286 0 0
2.25 0 0
2.14286 0.125 0
2.25 0.125 0
2.25 0 0
2.35714 0 0
2.25 0.125 0
2.35714 0.125 0
2.14286 0.125 0
2.25 0.125 0
2.14286 0.25 0
2.25 0.25 0
2.25 0.125 0
2.35714 0.125 0
2.25 0.25 0
2.35714 0.25 0
2.14286 0.25 0
2.25 0.25 0
2.14286 0.375 0
2.25 0.375 0
2.25 0.25 0
2.35714 0.25 0
2.25 0.375 0
2.35714 0.375 0
2.14286 0.375 0
2.25 0.375 0
2.14286 0.5 0
2.25 0.5 0
2.25 0.375 0
2.35714 0.375 0
2.25 0.5 0
2.35714 0.5 0
2.14286 0.5 0
2.25 0.5 0
2.14286 0.625 0
2.25 0.625 0
2.25 0.5 0
2.35714 0.5 0
2.25 0.625 0
2.35714 0.625 0
2.14286 0.625 0
2.25 0.625 0
2.14286 0.75 0
2.25 0.75 0
2.25 0.625 0
2.35714 0.625 0
2.25 0.75 0
2.35714 0.75 0
2.35714 0 0
2.46429 0 0
[...]
POINT_DATA 3648
VECTORS velocity double
0 0 0
0 0 0
0 0 0
-0.0115421 0.0129943 0
0 0 0
-0.0115421 0.0129943 0
0 0 0
-0.00166428 0.0285706 0
0 0 0
0 0 0
-0.0115421 0.0129943 0
-0.0345594 0.0136369 0
-0.0115421 0.0129943 0
-0.0345594 0.0136369 0
-0.00166428 0.0285706 0
-0.00197025 0.0256456 0
0 0 0
0 0 0
-0.0345594 0.0136369 0
-0.0530905 0.00839044 0
-0.0345594 0.0136369 0
-0.0530905 0.00839044 0
-0.00197025 0.0256456 0
-0.00296198 0.0192222 0
-0.00197025 0.0256456 0
-0.00296198 0.0192222 0
0.0208466 0.0163142 0
0.0364559 0.0120186 0
0 0 0
0 0 0
-0.0530905 0.00839044 0
-0.059614 -0.000411341 0
-0.0530905 0.00839044 0
-0.059614 -0.000411341 0
-0.00296198 0.0192222 0
0.0029023 -0.0115588 0
-0.00296198 0.0192222 0
0.0029023 -0.0115588 0
0.0364559 0.0120186 0
0.0357282 -0.0102583 0
0 0 0
0 0 0
-0.059614 -0.000411341 0
-0.049253 -0.0113095 0
-0.059614 -0.000411341 0
-0.049253 -0.0113095 0
0.0029023 -0.0115588 0
0.00698284 -0.0168507 0
0.0029023 -0.0115588 0
0.00698284 -0.0168507 0
0.0357282 -0.0102583 0
0.0183108 -0.00164947 0
0 0 0
0 0 0
-0.049253 -0.0113095 0
-0.00820612 -0.0388471 0
-0.049253 -0.0113095 0
-0.00820612 -0.0388471 0
0.00698284 -0.0168507 0
-0.0203218 -0.0494958 0
0.00698284 -0.0168507 0
-0.0203218 -0.0494958 0
0.0183108 -0.00164947 0
0.00872297 -0.0222792 0
0 0 0
0 0 0
-0.00820612 -0.0388471 0
0.0715978 -0.0553897 0
-0.00820612 -0.0388471 0
0.0715978 -0.0553897 0
-0.0203218 -0.0494958 0
-0.0667427 -0.0818745 0
0 0 0
0 0 0
0.0715978 -0.0553897 0
0.0805371 0.0452242 0
0.0715978 -0.0553897 0
0.0805371 0.0452242 0
-0.0667427 -0.0818745 0
-0.0654377 0.0574284 0
0 0 0
0 0 0
0.0805371 0.0452242 0
0.0274024 0.0165351 0
0.0805371 0.0452242 0
0.0274024 0.0165351 0
-0.0654377 0.0574284 0
-0.0421599 0.0399747 0
0 0 0
0 0 0
0.0274024 0.0165351 0
-0.0110775 0.0271295 0
0.0274024 0.0165351 0
-0.0110775 0.0271295 0
-0.0421599 0.0399747 0
-0.0113632 0.0121893 0
0 0 0
0 0 0
0 0 0
-0.0116479 -0.0131124 0
0 0 0
-0.0116479 -0.0131124 0
0 0 0
-0.0348513 -0.0137319 0
0 0 0
-0.0348513 -0.0137319 0
0 0 0
-0.0533895 -0.00831706 0
0 0 0
-0.0533895 -0.00831706 0
0 0 0
-0.0597321 0.00053637 0
0 0 0
-0.0597321 0.00053637 0
0 0 0
-0.0492532 0.0113223 0
0 0 0
-0.0492532 0.0113223 0
0 0 0
-0.00805315 0.0390371 0
0 0 0
-0.00805315 0.0390371 0
0 0 0
0.0717369 0.055175 0
0 0 0
0.0717369 0.055175 0
0 0 0
0.0805401 -0.045151 0
0 0 0
0.0805401 -0.045151 0
0 0 0
0.0274909 -0.0165253 0
0 0 0
0.0274909 -0.0165253 0
0 0 0
-0.0110508 -0.0271999 0
0 0 0
0 0 0
-0.0116479 -0.0131124 0
-0.00169583 -0.0288525 0
-0.0116479 -0.0131124 0
-0.00169583 -0.0288525 0
-0.0348513 -0.0137319 0
-0.0019742 -0.0257642 0
-0.0348513 -0.0137319 0
-0.0019742 -0.0257642 0
-0.0533895 -0.00831706 0
-0.00293099 -0.0190903 0
-0.0533895 -0.00831706 0
-0.00293099 -0.0190903 0
-0.0597321 0.00053637 0
0.00298455 0.0119127 0
-0.0597321 0.00053637 0
0.00298455 0.0119127 0
-0.0492532 0.0113223 0
0.00714579 0.0168573 0
-0.0492532 0.0113223 0
0.00714579 0.0168573 0
-0.00805315 0.0390371 0
-0.0204123 0.0495767 0
-0.00805315 0.0390371 0
-0.0204123 0.0495767 0
0.0717369 0.055175 0
-0.0667244 0.0818526 0
0.0717369 0.055175 0
-0.0667244 0.0818526 0
0.0805401 -0.045151 0
-0.0653127 -0.0575255 0
0.0805401 -0.045151 0
-0.0653127 -0.0575255 0
0.0274909 -0.0165253 0
-0.0421444 -0.0398484 0
0.0274909 -0.0165253 0
-0.0421444 -0.0398484 0
-0.0110508 -0.0271999 0
-0.0113481 -0.0124325 0
-0.0019742 -0.0257642 0
0.0210231 -0.016426 0
-0.00293099 -0.0190903 0
0.0366122 -0.0118744 0
-0.00293099 -0.0190903 0
0.0366122 -0.0118744 0
0.00298455 0.0119127 0
0.0357428 0.0104842 0
0.00298455 0.0119127 0
0.0357428 0.0104842 0
0.00714579 0.0168573 0
0.0180964 0.00159371 0
0.00714579 0.0168573 0
0.0180964 0.00159371 0
-0.0204123 0.0495767 0
0.00861544 0.0222665 0
0.00663311 0.0212116 0
0.0153409 0.0228807 0
0.00344979 0.0118623 0
0.0107565 0.0133994 0
0.0153409 0.0228807 0
0.0208466 0.0163142 0
0.0107565 0.0133994 0
0.0197588 0.00905668 0
0.00344979 0.0118623 0
0.0107565 0.0133994 0
0.05221 -0.00338981 0
0.0743781 -0.00502203 0
0.0107565 0.0133994 0
0.0197588 0.00905668 0
0.0743781 -0.00502203 0
0.093362 -0.00490758 0
0.0208466 0.0163142 0
0.028103 0.0136801 0
0.0197588 0.00905668 0
0.0253618 0.00618623 0
0.028103 0.0136801 0
0.0364559 0.0120186 0
0.0253618 0.00618623 0
0.0302919 0.00435643 0
0.0197588 0.00905668 0
0.0253618 0.00618623 0
0.093362 -0.00490758 0
0.109786 -0.00574953 0
0.0253618 0.00618623 0
0.0302919 0.00435643 0
0.109786 -0.00574953 0
0.123784 -0.00634835 0
0.0364559 0.0120186 0
0.040681 0.00175998 0
0.0302919 0.00435643 0
0.033832 0.000877785 0
0.040681 0.00175998 0
0.0357282 -0.0102583 0
0.033832 0.000877785 0
0.0335922 -0.00265299 0
0.0302919 0.00435643 0
0.033832 0.000877785 0
0.123784 -0.00634835 0
0.135994 -0.00750916 0
0.033832 0.000877785 0
0.0335922 -0.00265299 0
0.135994 -0.00750916 0
0.14695 -0.00756596 0
0.0357282 -0.0102583 0
0.0266567 -0.0070661 0
0.0335922 -0.00265299 0
0.0325295 -0.00245745 0
0.0266567 -0.0070661 0
0.0183108 -0.00164947 0
0.0325295 -0.00245745 0
0.0361499 -0.000493015 0
0.0335922 -0.00265299 0
0.0325295 -0.00245745 0
0.14695 -0.00756596 0
0.156714 -0.00864947 0
0.0325295 -0.00245745 0
0.0361499 -0.000493015 0
0.156714 -0.00864947 0
0.164959 -0.00914472 0
0.0183108 -0.00164947 0
0.0118399 -0.0102869 0
0.0361499 -0.000493015 0
0.0391318 -0.00703387 0
0.0118399 -0.0102869 0
0.00872297 -0.0222792 0
0.0391318 -0.00703387 0
0.0318732 -0.0128752 0
0.0361499 -0.000493015 0
0.0391318 -0.00703387 0
0.164959 -0.00914472 0
0.171766 -0.0105733 0
0.0391318 -0.00703387 0
0.0318732 -0.0128752 0
0.171766 -0.0105733 0
0.177685 -0.00804049 0
0.0521713 0.0033844 0
0.241383 0.0132676 0
0.0743417 0.00500162 0
0.234261 0.0122647 0
0.241383 0.0132676 0
0.157326 0.00657375 0
0.234261 0.0122647 0
0.153263 0.00621498 0
0.0743417 0.00500162 0
0.234261 0.0122647 0
0.0933344 0.00488473 0
0.227596 0.0111892 0
0.234261 0.0122647 0
0.153263 0.00621498 0
0.227596 0.0111892 0
0.14966 0.00565516 0
0.0933344 0.00488473 0
0.227596 0.0111892 0
0.109773 0.0057356 0
0.221275 0.0101891 0
0.227596 0.0111892 0
0.14966 0.00565516 0
0.221275 0.0101891 0
0.146509 0.00528129 0
0.109773 0.0057356 0
0.221275 0.0101891 0
0.123794 0.00634834 0
0.215199 0.00996271 0
0.221275 0.0101891 0
0.146509 0.00528129 0
0.215199 0.00996271 0
0.143663 0.00513999 0
0.123794 0.00634834 0
0.215199 0.00996271 0
0.136024 0.00753482 0
0.209132 0.00954976 0
0.215199 0.00996271 0
0.143663 0.00513999 0
0.209132 0.00954976 0
0.141075 0.0049668 0
0.136024 0.00753482 0
0.209132 0.00954976 0
0.146997 0.00759226 0
0.202893 0.00952108 0
0.209132 0.00954976 0
0.141075 0.0049668 0
0.202893 0.00952108 0
0.138707 0.00480811 0
0.146997 0.00759226 0
0.202893 0.00952108 0
0.156786 0.00867752 0
0.196453 0.00911641 0
0.202893 0.00952108 0
0.138707 0.00480811 0
0.196453 0.00911641 0
0.136531 0.00460017 0
0.156786 0.00867752 0
0.196453 0.00911641 0
0.165051 0.00917323 0
0.189981 0.00956805 0
0.196453 0.00911641 0
0.136531 0.00460017 0
0.189981 0.00956805 0
0.134455 0.00481978 0
0.165051 0.00917323 0
0.189981 0.00956805 0
0.171873 0.0106113 0
0.183382 0.00893202 0
0.189981 0.00956805 0
0.134455 0.00481978 0
0.183382 0.00893202 0
0.132552 0.00416784 0
0.171873 0.0106113 0
0.183382 0.00893202 0
0.177804 0.0080603 0
0.176728 0.00774303 0
0.183382 0.00893202 0
0.132552 0.00416784 0
0.176728 0.00774303 0
0.131027 0.00341347 0
0.157446 -0.00658959 0
0.241253 -0.0132834 0
0.153369 -0.00623033 0
0.234141 -0.0122862 0
0.241253 -0.0132834 0
0.05221 -0.00338981 0
0.234141 -0.0122862 0
0.0743781 -0.00502203 0
0.153369 -0.00623033 0
0.234141 -0.0122862 0
0.149752 -0.00566711 0
0.227481 -0.0112074 0
0.234141 -0.0122862 0
0.0743781 -0.00502203 0
0.227481 -0.0112074 0
0.093362 -0.00490758 0
0.149752 -0.00566711 0
0.227481 -0.0112074 0
0.146589 -0.00528746 0
0.221166 -0.0101991 0
0.227481 -0.0112074 0
0.093362 -0.00490758 0
0.221166 -0.0101991 0
0.109786 -0.00574953 0
0.146589 -0.00528746 0
0.221166 -0.0101991 0
0.143734 -0.00514044 0
0.215103 -0.00995716 0
0.221166 -0.0101991 0
0.109786 -0.00574953 0
0.215103 -0.00995716 0
0.123784 -0.00634835 0
0.143734 -0.00514044 0
0.215103 -0.00995716 0
0.14114 -0.00496168 0
0.209058 -0.00953475 0
0.215103 -0.00995716 0
0.123784 -0.00634835 0
0.209058 -0.00953475 0
0.135994 -0.00750916 0
0.14114 -0.00496168 0
0.209058 -0.00953475 0
0.138769 -0.00480129 0
0.202846 -0.00949922 0
0.209058 -0.00953475 0
0.135994 -0.00750916 0
0.202846 -0.00949922 0
0.14695 -0.00756596 0
0.138769 -0.00480129 0
0.202846 -0.00949922 0
0.136589 -0.00459068 0
0.196438 -0.00909596 0
0.202846 -0.00949922 0
0.14695 -0.00756596 0
0.196438 -0.00909596 0
0.156714 -0.00864947 0
0.136589 -0.00459068 0
0.196438 -0.00909596 0
0.134506 -0.00480779 0
0.189996 -0.00954402 0
0.196438 -0.00909596 0
0.156714 -0.00864947 0
0.189996 -0.00954402 0
0.164959 -0.00914472 0
0.134506 -0.00480779 0
0.189996 -0.00954402 0
0.132596 -0.00416084 0
0.183426 -0.00891405 0
0.189996 -0.00954402 0
0.164959 -0.00914472 0
0.183426 -0.00891405 0
0.171766 -0.0105733 0
0.132596 -0.00416084 0
0.183426 -0.00891405 0
0.131061 -0.00341008 0
0.176803 -0.0077291 0
0.183426 -0.00891405 0
0.171766 -0.0105733 0
0.176803 -0.0077291 0
0.177685 -0.00804049 0
0.00675965 -0.021438 0
0.00352601 -0.0119747 0
0.0155099 -0.0230374 0
0.0109638 -0.0134693 0
0.00352601 -0.0119747 0
0.0521713 0.0033844 0
0.0109638 -0.0134693 0
0.0743417 0.00500162 0
0.0155099 -0.0230374 0
0.0109638 -0.0134693 0
0.0210231 -0.016426 0
0.0200537 -0.00914537 0
0.0109638 -0.0134693 0
0.0743417 0.00500162 0
0.0200537 -0.00914537 0
0.0933344 0.00488473 0
0.0210231 -0.016426 0
0.0200537 -0.00914537 0
0.0282451 -0.0136638 0
0.0256912 -0.00619357 0
0.0200537 -0.00914537 0
0.0933344 0.00488473 0
0.0256912 -0.00619357 0
0.109773 0.0057356 0
0.0282451 -0.0136638 0
0.0256912 -0.00619357 0
0.0366122 -0.0118744 0
0.0305267 -0.00428162 0
0.0256912 -0.00619357 0
0.109773 0.0057356 0
0.0305267 -0.00428162 0
0.123794 0.00634834 0
0.0366122 -0.0118744 0
0.0305267 -0.00428162 0
0.0408228 -0.0015814 0
0.0339354 -0.000797765 0
0.0305267 -0.00428162 0
0.123794 0.00634834 0
0.0339354 -0.000797765 0
0.136024 0.00753482 0
0.0408228 -0.0015814 0
0.0339354 -0.000797765 0
0.0357428 0.0104842 0
0.0335982 0.00271785 0
0.0339354 -0.000797765 0
0.136024 0.00753482 0
0.0335982 0.00271785 0
0.146997 0.00759226 0
0.0357428 0.0104842 0
0.0335982 0.00271785 0
0.0265218 0.0071691 0
0.0324774 0.0024854 0
0.0335982 0.00271785 0
0.146997 0.00759226 0
0.0324774 0.0024854 0
0.156786 0.00867752 0
0.0265218 0.0071691 0
0.0324774 0.0024854 0
0.0180964 0.00159371 0
0.0361267 0.0004598 0
0.0324774 0.0024854 0
0.156786 0.00867752 0
0.0361267 0.0004598 0
0.165051 0.00917323 0
0.0180964 0.00159371 0
0.0361267 0.0004598 0
0.0116292 0.0102286 0
0.0391766 0.00703778 0
0.0361267 0.0004598 0
0.165051 0.00917323 0
0.0391766 0.00703778 0
0.171873 0.0106113 0
0.0116292 0.0102286 0
0.0391766 0.00703778 0
0.00861544 0.0222665 0
0.0319181 0.0129163 0
0.0391766 0.00703778 0
0.171873 0.0106113 0
0.0319181 0.0129163 0
0.177804 0.0080603 0
0 0 0
-0.000376733 0.0146354 0
0 0 0
0.00118499 0.0139271 0
-0.000376733 0.0146354 0
-0.00166428 0.0285706 0
0.00118499 0.0139271 0
0.00274077 0.0291317 0
0 0 0
0.00118499 0.0139271 0
0 0 0
0.000113679 0.012675 0
0.00118499 0.0139271 0
0.00274077 0.0291317 0
0.000113679 0.012675 0
0.00663311 0.0212116 0
-0.00166428 0.0285706 0
-0.00261281 0.0270579 0
0.00274077 0.0291317 0
0.00404045 0.0263238 0
-0.00261281 0.0270579 0
-0.00197025 0.0256456 0
0.00404045 0.0263238 0
0.00687784 0.0225168 0
0.00274077 0.0291317 0
0.00404045 0.0263238 0
0.00663311 0.0212116 0
0.0153409 0.0228807 0
0.00404045 0.0263238 0
0.00687784 0.0225168 0
0.0153409 0.0228807 0
0.0208466 0.0163142 0
-0.0203218 -0.0494958 0
-0.0427677 -0.067341 0
-0.00912854 -0.029845 0
-0.0297795 -0.0367651 0
-0.0427677 -0.067341 0
-0.0667427 -0.0818745 0
-0.0297795 -0.0367651 0
-0.0608332 -0.0485745 0
-0.00912854 -0.029845 0
-0.0297795 -0.0367651 0
0.00872297 -0.0222792 0
-0.00308569 -0.00605712 0
-0.0297795 -0.0367651 0
-0.0608332 -0.0485745 0
-0.00308569 -0.00605712 0
-0.0365369 -0.00456096 0
0.00872297 -0.0222792 0
-0.00308569 -0.00605712 0
0.0318732 -0.0128752 0
0.0295671 0.000675077 0
-0.00308569 -0.00605712 0
-0.0365369 -0.00456096 0
0.0295671 0.000675077 0
0.0460977 0.00829578 0
0.0318732 -0.0128752 0
0.0295671 0.000675077 0
0.177685 -0.00804049 0
0.182247 -0.00732604 0
0.0295671 0.000675077 0
0.0460977 0.00829578 0
0.182247 -0.00732604 0
0.184017 -0.00493388 0
-0.0667427 -0.0818745 0
-0.0792624 -0.0102648 0
-0.0608332 -0.0485745 0
-0.0750354 -0.0112121 0
-0.0792624 -0.0102648 0
-0.0654377 0.0574284 0
-0.0750354 -0.0112121 0
-0.0615557 0.0260397 0
-0.0608332 -0.0485745 0
-0.0750354 -0.0112121 0
-0.0365369 -0.00456096 0
-0.0421731 -0.0312045 0
-0.0750354 -0.0112121 0
-0.0615557 0.0260397 0
-0.0421731 -0.0312045 0
-0.0378767 0.0245742 0
-0.0654377 0.0574284 0
-0.0455642 0.0480737 0
-0.0615557 0.0260397 0
-0.0472074 0.0394531 0
-0.0455642 0.0480737 0
-0.0421599 0.0399747 0
-0.0472074 0.0394531 0
-0.0327393 0.0276346 0
-0.0615557 0.0260397 0
-0.0472074 0.0394531 0
-0.0378767 0.0245742 0
-0.0414284 0.028721 0
-0.0472074 0.0394531 0
-0.0327393 0.0276346 0
-0.0414284 0.028721 0
-0.021992 -0.00110242 0
-0.0421599 0.0399747 0
-0.0371586 0.0269731 0
-0.0327393 0.0276346 0
-0.00184223 -0.0026618 0
-0.0371586 0.0269731 0
-0.0113632 0.0121893 0
-0.00184223 -0.0026618 0
0.013291 -0.00642564 0
-0.0327393 0.0276346 0
-0.00184223 -0.0026618 0
-0.021992 -0.00110242 0
-0.0227064 -0.00885646 0
-0.00184223 -0.0026618 0
0.013291 -0.00642564 0
-0.0227064 -0.00885646 0
-0.0295584 -0.00959635 0
0 0 0
0 0 0
-0.00343854 0.00673149 0
-0.0384258 0.0339463 0
0 0 0
0 0 0
-0.0384258 0.0339463 0
-0.0378445 -0.0334763 0
-0.00343854 0.00673149 0
-0.0384258 0.0339463 0
-0.0110775 0.0271295 0
0.012199 0.0271482 0
-0.0384258 0.0339463 0
-0.0378445 -0.0334763 0
0.012199 0.0271482 0
0.0142404 -0.0289924 0
-0.0110775 0.0271295 0
0.012199 0.0271482 0
-0.0115403 0.0370966 0
0.00682335 -0.0302739 0
0.012199 0.0271482 0
0.0142404 -0.0289924 0
0.00682335 -0.0302739 0
-0.00414608 0.0380785 0
-0.0115403 0.0370966 0
0.00682335 -0.0302739 0
-0.0113632 0.0121893 0
-0.00639868 -0.0307088 0
0.00682335 -0.0302739 0
-0.00414608 0.0380785 0
-0.00639868 -0.0307088 0
-0.0208332 0.0672719 0
-0.0113632 0.0121893 0
-0.00639868 -0.0307088 0
0.013291 -0.00642564 0
-0.00997538 0.00881216 0
-0.00639868 -0.0307088 0
-0.0208332 0.0672719 0
-0.00997538 0.00881216 0
-0.0202442 0.0560347 0
0.013291 -0.00642564 0
-0.00997538 0.00881216 0
-0.0295584 -0.00959635 0
-0.0108323 0.0171719 0
-0.00997538 0.00881216 0
-0.0202442 0.0560347 0
-0.0108323 0.0171719 0
0.0104576 0.0350145 0
0 0 0
0 0 0
-0.0378445 -0.0334763 0
-0.0189801 0.0103531 0
0 0 0
0 0 0
-0.0189801 0.0103531 0
-0.0238586 -0.00375245 0
-0.0378445 -0.0334763 0
-0.0189801 0.0103531 0
0.0142404 -0.0289924 0
-0.0297203 0.0339629 0
-0.0189801 0.0103531 0
-0.0238586 -0.00375245 0
-0.0297203 0.0339629 0
-0.0446831 -0.00250991 0
0.0142404 -0.0289924 0
-0.0297203 0.0339629 0
-0.00414608 0.0380785 0
-0.0286275 0.046622 0
-0.0297203 0.0339629 0
-0.0446831 -0.00250991 0
-0.0286275 0.046622 0
-0.026772 0.0010058 0
-0.00414608 0.0380785 0
-0.0286275 0.046622 0
-0.0208332 0.0672719 0
-0.00335642 0.0255194 0
-0.0286275 0.046622 0
-0.026772 0.0010058 0
-0.00335642 0.0255194 0
0.0179017 -0.00475459 0
-0.0208332 0.0672719 0
-0.00335642 0.0255194 0
-0.0202442 0.0560347 0
-0.0161365 0.011456 0
-0.00335642 0.0255194 0
0.0179017 -0.00475459 0
-0.0161365 0.011456 0
-0.0163187 -0.0151212 0
-0.0202442 0.0560347 0
-0.0161365 0.011456 0
0.0104576 0.0350145 0
0.0213154 0.0146022 0
-0.0161365 0.011456 0
-0.0163187 -0.0151212 0
0.0213154 0.0146022 0
0.00686273 -0.00129909 0
0 0 0
0 0 0
-0.0238586 -0.00375245 0
-0.0175579 -0.00418919 0
0 0 0
0 0 0
-0.0175579 -0.00418919 0
-0.00436881 -0.0109132 0
-0.0238586 -0.00375245 0
-0.0175579 -0.00418919 0
-0.0446831 -0.00250991 0
-0.0426186 -0.0159013 0
-0.0175579 -0.00418919 0
-0.00436881 -0.0109132 0
-0.0426186 -0.0159013 0
-0.0290118 -0.0299156 0
-0.0446831 -0.00250991 0
-0.0426186 -0.0159013 0
-0.026772 0.0010058 0
-0.0303462 -0.0180201 0
-0.0426186 -0.0159013 0
-0.0290118 -0.0299156 0
-0.0303462 -0.0180201 0
-0.0310123 -0.0428184 0
-0.026772 0.0010058 0
-0.0303462 -0.0180201 0
0.0179017 -0.00475459 0
0.00989132 0.000783529 0
-0.0303462 -0.0180201 0
-0.0310123 -0.0428184 0
0.00989132 0.000783529 0
-0.010762 -0.0368161 0
0.0179017 -0.00475459 0
0.00989132 0.000783529 0
-0.0163187 -0.0151212 0
-0.00412848 0.00624659 0
0.00989132 0.000783529 0
-0.010762 -0.0368161 0
-0.00412848 0.00624659 0
-0.000620147 -0.0223002 0
-0.0163187 -0.0151212 0
-0.00412848 0.00624659 0
0.00686273 -0.00129909 0
0.0022681 -0.0171424 0
-0.00412848 0.00624659 0
-0.000620147 -0.0223002 0
0.0022681 -0.0171424 0
0.00298413 -0.00404756 0
0 0 0
0 0 0
-0.00436881 -0.0109132 0
0.00257207 0.00282945 0
0 0 0
0 0 0
0.00257207 0.00282945 0
0 0 0
-0.00436881 -0.0109132 0
0.00257207 0.00282945 0
-0.0290118 -0.0299156 0
-0.010935 -0.00721288 0
0.00257207 0.00282945 0
0 0 0
-0.010935 -0.00721288 0
0 0 0
-0.0290118 -0.0299156 0
-0.010935 -0.00721288 0
-0.0310123 -0.0428184 0
-0.0133434 -0.0360775 0
-0.010935 -0.00721288 0
0 0 0
-0.0133434 -0.0360775 0
0 0 0
-0.0310123 -0.0428184 0
-0.0133434 -0.0360775 0
-0.010762 -0.0368161 0
-0.00993507 -0.0635056 0
-0.0133434 -0.0360775 0
0 0 0
-0.00993507 -0.0635056 0
0 0 0
-0.010762 -0.0368161 0
-0.00993507 -0.0635056 0
-0.000620147 -0.0223002 0
-0.00203233 -0.077592 0
-0.00993507 -0.0635056 0
0 0 0
-0.00203233 -0.077592 0
0 0 0
-0.000620147 -0.0223002 0
-0.00203233 -0.077592 0
0.00298413 -0.00404756 0
-0.00514115 -0.085948 0
-0.00203233 -0.077592 0
0 0 0
-0.00514115 -0.085948 0
0 0 0
0.177804 0.0080603 0
0.176728 0.00774303 0
0.182375 0.00735442 0
0.171086 0.00589017 0
0.176728 0.00774303 0
0.131027 0.00341347 0
0.171086 0.00589017 0
0.129877 0.00265746 0
0.182375 0.00735442 0
0.171086 0.00589017 0
0.184142 0.00494444 0
0.16765 0.00384981 0
0.171086 0.00589017 0
0.129877 0.00265746 0
0.16765 0.00384981 0
0.128764 0.00188899 0
0.165261 0.00678368 0
0.107609 0.0059879 0
0.161296 0.00663578 0
0.11016 0.00579276 0
0.107609 0.0059879 0
0.227122 -5.83935e-06 0
0.11016 0.00579276 0
0.214521 -5.48102e-06 0
0.161296 0.00663578 0
0.11016 0.00579276 0
0.157326 0.00657375 0
0.112279 0.00529321 0
0.11016 0.00579276 0
0.214521 -5.48102e-06 0
0.112279 0.00529321 0
0.203018 -4.7847e-06 0
0.157326 0.00657375 0
0.112279 0.00529321 0
0.153263 0.00621498 0
0.114227 0.00504149 0
0.112279 0.00529321 0
0.203018 -4.7847e-06 0
0.114227 0.00504149 0
0.192422 -4.17175e-06 0
0.153263 0.00621498 0
0.114227 0.00504149 0
0.14966 0.00565516 0
0.115916 0.00456436 0
0.114227 0.00504149 0
0.192422 -4.17175e-06 0
0.115916 0.00456436 0
0.182725 -2.53297e-06 0
0.14966 0.00565516 0
0.115916 0.00456436 0
0.146509 0.00528129 0
0.11732 0.00433184 0
0.115916 0.00456436 0
0.182725 -2.53297e-06 0
0.11732 0.00433184 0
0.173941 -9.23665e-07 0
0.146509 0.00528129 0
0.11732 0.00433184 0
0.143663 0.00513999 0
0.118403 0.0039293 0
0.11732 0.00433184 0
0.173941 -9.23665e-07 0
0.118403 0.0039293 0
0.166069 9.40278e-07 0
0.143663 0.00513999 0
0.118403 0.0039293 0
0.141075 0.0049668 0
0.119123 0.00387704 0
0.118403 0.0039293 0
0.166069 9.40278e-07 0
0.119123 0.00387704 0
0.159013 2.08798e-06 0
0.141075 0.0049668 0
0.119123 0.00387704 0
0.138707 0.00480811 0
0.11949 0.00346452 0
0.119123 0.00387704 0
0.159013 2.08798e-06 0
0.11949 0.00346452 0
0.152635 3.14714e-06 0
0.138707 0.00480811 0
0.11949 0.00346452 0
0.136531 0.00460017 0
0.119502 0.00348894 0
0.11949 0.00346452 0
0.152635 3.14714e-06 0
0.119502 0.00348894 0
0.146918 5.18796e-06 0
0.136531 0.00460017 0
0.119502 0.00348894 0
0.134455 0.00481978 0
0.119223 0.00313159 0
0.119502 0.00348894 0
0.146918 5.18796e-06 0
0.119223 0.00313159 0
0.141872 6.25808e-06 0
0.134455 0.00481978 0
0.119223 0.00313159 0
0.132552 0.00416784 0
0.118808 0.00313362 0
0.119223 0.00313159 0
0.141872 6.25808e-06 0
0.118808 0.00313362 0
0.137347 3.7418e-06 0
0.132552 0.00416784 0
0.118808 0.00313362 0
0.131027 0.00341347 0