# vtk DataFile Version 3.0
#This file was generated by the deal.II library on 2026/3/26 at 11:20:10
ASCII
DATASET UNSTRUCTURED_GRID

POINTS 3648 double
0 0 0
0.214286 0 0
0 0.25 0
0.214286 0.25 0
0 0.25 0
0.214286 0.25 0
0 0.5 0
0.214286 0.5 0
0.214286 0 0
0.428571 0 0
0.214286 0.25 0
0.428571 0.25 0
0.214286 0.25 0
0.428571 0.25 0
0.214286 0.5 0
0.428571 0.5 0
0.428571 0 0
0.642857 0 0
0.428571 0.25 0
0.642857 0.25 0
0.428571 0.25 0
0.642857 0.25 0
0.428571 0.5 0
0.642857 0.5 0
0.428571 0.5 0
0.642857 0.5 0
0.428571 0.75 0
0.642857 0.75 0
0.642857 0 0
0.857143 0 0
0.642857 0.25 0
0.857143 0.25 0
0.642857 0.25 0
0.857143 0.25 0
0.642857 0.5 0
0.857143 0.5 0
0.642857 0.5 0
0.857143 0.5 0
0.642857 0.75 0
0.857143 0.75 0
0.857143 0 0
1.07143 0 0
0.857143 0.25 0
1.07143 0.25 0
0.857143 0.25 0
1.07143 0.25 0
0.857143 0.5 0
1.07143 0.5 0
0.857143 0.5 0
1.07143 0.5 0
0.857143 0.75 0
1.07143 0.75 0
1.07143 0 0
1.28571 0 0
1.07143 0.25 0
1.28571 0.25 0
1.07143 0.25 0
1.28571 0.25 0
1.07143 0.5 0
1.28571 0.5 0
1.07143 0.5 0
1.28571 0.5 0
1.07143 0.75 0
1.28571 0.75 0
1.28571 0 0
1.5 0 0
1.28571 0.25 0
1.5 0.25 0
1.28571 0.25 0
1.5 0.25 0
1.28571 0.5 0
1.5 0.5 0
1.5 0 0
1.71429 0 0
1.5 0.25 0
1.71429 0.25 0
1.5 0.25 0
1.71429 0.25 0
1.5 0.5 0
1.71429 0.5 0
1.71429 0 0
1.92857 0 0
1.71429 0.25 0
1.92857 0.25 0
1.71429 0.25 0
1.92857 0.25 0
1.71429 0.5 0
1.92857 0.5 0
1.92857 0 0
2.14286 0 0
1.92857 0.25 0
2.14286 0.25 0
1.92857 0.25 0
2.14286 0.25 0
1.92857 0.5 0
2.14286 0.5 0
0 3 0
0 2.75 0
0.214286 3 0
0.214286 2.75 0
0.214286 3 0
0.214286 2.75 0
0.428571 3 0
0.428571 2.75 0
0.428571 3 0
0.428571 2.75 0
0.642857 3 0
0.642857 2.75 0
0.642857 3 0
0.642857 2.75 0
0.857143 3 0
0.857143 2.75 0
0.857143 3 0
0.857143 2.75 0
1.07143 3 0
1.07143 2.75 0
1.07143 3 0
1.07143 2.75 0
1.28571 3 0
1.28571 2.75 0
1.28571 3 0
1.28571 2.75 0
1.5 3 0
1.5 2.75 0
1.5 3 0
1.5 2.75 0
1.71429 3 0
1.71429 2.75 0
1.71429 3 0
1.71429 2.75 0
1.92857 3 0
1.92857 2.75 0
1.92857 3 0
1.92857 2.75 0
2.14286 3 0
2.14286 2.75 0
0 2.75 0
0 2.5 0
0.214286 2.75 0
0.214286 2.5 0
0.214286 2.75 0
0.214286 2.5 0
0.428571 2.75 0
0.428571 2.5 0
0.428571 2.75 0
0.428571 2.5 0
0.642857 2.75 0
0.642857 2.5 0
0.642857 2.75 0
0.642857 2.5 0
0.857143 2.75 0
0.857143 2.5 0
0.857143 2.75 0
0.857143 2.5 0
1.07143 2.75 0
1.07143 2.5 0
1.07143 2.75 0
1.07143 2.5 0
1.28571 2.75 0
1.28571 2.5 0
1.28571 2.75 0
1.28571 2.5 0
1.5 2.75 0
1.5 2.5 0
1.5 2.75 0
1.5 2.5 0
1.71429 2.75 0
1.71429 2.5 0
1.71429 2.75 0
1.71429 2.5 0
1.92857 2.75 0
1.92857 2.5 0
1.92857 2.75 0
1.92857 2.5 0
2.14286 2.75 0
2.14286 2.5 0
0.428571 2.5 0
0.428571 2.25 0
0.642857 2.5 0
0.642857 2.25 0
0.642857 2.5 0
0.642857 2.25 0
0.857143 2.5 0
0.857143 2.25 0
0.857143 2.5 0
0.857143 2.25 0
1.07143 2.5 0
1.07143 2.25 0
1.07143 2.5 0
1.07143 2.25 0
1.28571 2.5 0
1.28571 2.25 0
0.214286 0.75 0
0.321429 0.75 0
0.214286 0.875 0
0.321429 0.875 0
0.321429 0.75 0
0.428571 0.75 0
0.321429 0.875 0
0.428571 0.875 0
0.214286 0.875 0
0.321429 0.875 0
0.214286 1 0
0.321429 1 0
0.321429 0.875 0
0.428571 0.875 0
0.321429 1 0
0.428571 1 0
0.428571 0.75 0
0.535714 0.75 0
0.428571 0.875 0
0.535714 0.875 0
0.535714 0.75 0
0.642857 0.75 0
0.535714 0.875 0
0.642857 0.875 0
0.428571 0.875 0
0.535714 0.875 0
0.428571 1 0
0.535714 1 0
0.535714 0.875 0
0.642857 0.875 0
0.535714 1 0
0.642857 1 0
0.642857 0.75 0
0.75 0.75 0
0.642857 0.875 0
0.75 0.875 0
0.75 0.75 0
0.857143 0.75 0
0.75 0.875 0
0.857143 0.875 0
0.642857 0.875 0
0.75 0.875 0
0.642857 1 0
0.75 1 0
0.75 0.875 0
0.857143 0.875 0
0.75 1 0
0.857143 1 0
0.857143 0.75 0
0.964286 0.75 0
0.857143 0.875 0
0.964286 0.875 0
0.964286 0.75 0
1.07143 0.75 0
0.964286 0.875 0
1.07143 0.875 0
0.857143 0.875 0
0.964286 0.875 0
0.857143 1 0
0.964286 1 0
0.964286 0.875 0
1.07143 0.875 0
0.964286 1 0
1.07143 1 0
1.07143 0.75 0
1.17857 0.75 0
1.07143 0.875 0
1.17857 0.875 0
1.17857 0.75 0
1.28571 0.75 0
1.17857 0.875 0
1.28571 0.875 0
1.07143 0.875 0
1.17857 0.875 0
1.07143 1 0
1.17857 1 0
1.17857 0.875 0
1.28571 0.875 0
1.17857 1 0
1.28571 1 0
0.214286 2 0
0.214286 1.875 0
0.321429 2 0
0.321429 1.875 0
0.214286 1.875 0
0.214286 1.75 0
0.321429 1.875 0
0.321429 1.75 0
0.321429 2 0
0.321429 1.875 0
0.428571 2 0
0.428571 1.875 0
0.321429 1.875 0
0.321429 1.75 0
0.428571 1.875 0
0.428571 1.75 0
0.428571 2 0
0.428571 1.875 0
0.535714 2 0
0.535714 1.875 0
0.428571 1.875 0
0.428571 1.75 0
0.535714 1.875 0
0.535714 1.75 0
0.535714 2 0
0.535714 1.875 0
0.642857 2 0
0.642857 1.875 0
0.535714 1.875 0
0.535714 1.75 0
0.642857 1.875 0
0.642857 1.75 0
0.642857 2 0
0.642857 1.875 0
0.75 2 0
0.75 1.875 0
0.642857 1.875 0
0.642857 1.75 0
0.75 1.875 0
0.75 1.75 0
0.75 2 0
0.75 1.875 0
0.857143 2 0
0.857143 1.875 0
0.75 1.875 0
0.75 1.75 0
0.857143 1.875 0
0.857143 1.75 0
0.857143 2 0
0.857143 1.875 0
0.964286 2 0
0.964286 1.875 0
0.857143 1.875 0
0.857143 1.75 0
0.964286 1.875 0
0.964286 1.75 0
0.964286 2 0
0.964286 1.875 0
1.07143 2 0
1.07143 1.875 0
0.964286 1.875 0
0.964286 1.75 0
1.07143 1.875 0
1.07143 1.75 0
1.07143 2 0
1.07143 1.875 0
1.17857 2 0
1.17857 1.875 0
1.07143 1.875 0
1.07143 1.75 0
1.17857 1.875 0
1.17857 1.75 0
1.17857 2 0
1.17857 1.875 0
1.28571 2 0
1.28571 1.875 0
1.17857 1.875 0
1.17857 1.75 0
1.28571 1.875 0
1.28571 1.75 0
0.214286 1.25 0
0.214286 1.125 0
0.321429 1.25 0
0.321429 1.125 0
0.214286 1.125 0
0.214286 1 0
0.321429 1.125 0
0.321429 1 0
0.321429 1.25 0
0.321429 1.125 0
0.428571 1.25 0
0.428571 1.125 0
0.321429 1.125 0
0.321429 1 0
0.428571 1.125 0
0.428571 1 0
0.428571 1.25 0
0.428571 1.125 0
0.535714 1.25 0
0.535714 1.125 0
0.428571 1.125 0
0.428571 1 0
0.535714 1.125 0
0.535714 1 0
0.535714 1.25 0
0.535714 1.125 0
0.642857 1.25 0
0.642857 1.125 0
0.535714 1.125 0
0.535714 1 0
0.642857 1.125 0
0.642857 1 0
0.642857 1.25 0
0.642857 1.125 0
0.75 1.25 0
0.75 1.125 0
0.642857 1.125 0
0.642857 1 0
0.75 1.125 0
0.75 1 0
0.75 1.25 0
0.75 1.125 0
0.857143 1.25 0
0.857143 1.125 0
0.75 1.125 0
0.75 1 0
0.857143 1.125 0
0.857143 1 0
0.857143 1.25 0
0.857143 1.125 0
0.964286 1.25 0
0.964286 1.125 0
0.857143 1.125 0
0.857143 1 0
0.964286 1.125 0
0.964286 1 0
0.964286 1.25 0
0.964286 1.125 0
1.07143 1.25 0
1.07143 1.125 0
0.964286 1.125 0
0.964286 1 0
1.07143 1.125 0
1.07143 1 0
1.07143 1.25 0
1.07143 1.125 0
1.17857 1.25 0
1.17857 1.125 0
1.07143 1.125 0
1.07143 1 0
1.17857 1.125 0
1.17857 1 0
1.17857 1.25 0
1.17857 1.125 0
1.28571 1.25 0
1.28571 1.125 0
1.17857 1.125 0
1.17857 1 0
1.28571 1.125 0
1.28571 1 0
0.214286 2.25 0
0.214286 2.125 0
0.321429 2.25 0
0.321429 2.125 0
0.214286 2.125 0
0.214286 2 0
0.321429 2.125 0
0.321429 2 0
0.321429 2.25 0
0.321429 2.125 0
0.428571 2.25 0
0.428571 2.125 0
0.321429 2.125 0
0.321429 2 0
0.428571 2.125 0
0.428571 2 0
0.428571 2.25 0
0.428571 2.125 0
0.535714 2.25 0
0.535714 2.125 0
0.428571 2.125 0
0.428571 2 0
0.535714 2.125 0
0.535714 2 0
0.535714 2.25 0
0.535714 2.125 0
0.642857 2.25 0
0.642857 2.125 0
0.535714 2.125 0
0.535714 2 0
0.642857 2.125 0
0.642857 2 0
0.642857 2.25 0
0.642857 2.125 0
0.75 2.25 0
0.75 2.125 0
0.642857 2.125 0
0.642857 2 0
0.75 2.125 0
0.75 2 0
0.75 2.25 0
0.75 2.125 0
0.857143 2.25 0
0.857143 2.125 0
0.75 2.125 0
0.75 2 0
0.857143 2.125 0
0.857143 2 0
0.857143 2.25 0
0.857143 2.125 0
0.964286 2.25 0
0.964286 2.125 0
0.857143 2.125 0
0.857143 2 0
0.964286 2.125 0
0.964286 2 0
0.964286 2.25 0
0.964286 2.125 0
1.07143 2.25 0
1.07143 2.125 0
0.964286 2.125 0
0.964286 2 0
1.07143 2.125 0
1.07143 2 0
1.07143 2.25 0
1.07143 2.125 0
1.17857 2.25 0
1.17857 2.125 0
1.07143 2.125 0
1.07143 2 0
1.17857 2.125 0
1.17857 2 0
1.17857 2.25 0
1.17857 2.125 0
1.28571 2.25 0
1.28571 2.125 0
1.17857 2.125 0
1.17857 2 0
1.28571 2.125 0
1.28571 2 0
0 0.5 0
0.107143 0.5 0
0 0.625 0
0.107143 0.625 0
0.107143 0.5 0
0.214286 0.5 0
0.107143 0.625 0
0.214286 0.625 0
0 0.625 0
0.107143 0.625 0
0 0.75 0
0.107143 0.75 0
0.107143 0.625 0
0.214286 0.625 0
0.107143 0.75 0
0.214286 0.75 0
0.214286 0.5 0
0.321429 0.5 0
0.214286 0.625 0
0.321429 0.625 0
0.321429 0.5 0
0.428571 0.5 0
0.321429 0.625 0
0.428571 0.625 0
0.214286 0.625 0
0.321429 0.625 0
0.214286 0.75 0
0.321429 0.75 0
0.321429 0.625 0
0.428571 0.625 0
0.321429 0.75 0
0.428571 0.75 0
1.28571 0.5 0
1.39286 0.5 0
1.28571 0.625 0
1.39286 0.625 0
1.39286 0.5 0
1.5 0.5 0
1.39286 0.625 0
1.5 0.625 0
1.28571 0.625 0
1.39286 0.625 0
1.28571 0.75 0
1.39286 0.75 0
1.39286 0.625 0
1.5 0.625 0
1.39286 0.75 0
1.5 0.75 0
1.28571 0.75 0
1.39286 0.75 0
1.28571 0.875 0
1.39286 0.875 0
1.39286 0.75 0
1.5 0.75 0
1.39286 0.875 0
1.5 0.875 0
1.28571 0.875 0
1.39286 0.875 0
1.28571 1 0
1.39286 1 0
1.39286 0.875 0
1.5 0.875 0
1.39286 1 0
1.5 1 0
1.5 0.5 0
1.60714 0.5 0
1.5 0.625 0
1.60714 0.625 0
1.60714 0.5 0
1.71429 0.5 0
1.60714 0.625 0
1.71429 0.625 0
1.5 0.625 0
1.60714 0.625 0
1.5 0.75 0
1.60714 0.75 0
1.60714 0.625 0
1.71429 0.625 0
1.60714 0.75 0
1.71429 0.75 0
1.71429 0.5 0
1.82143 0.5 0
1.71429 0.625 0
1.82143 0.625 0
1.82143 0.5 0
1.92857 0.5 0
1.82143 0.625 0
1.92857 0.625 0
1.71429 0.625 0
1.82143 0.625 0
1.71429 0.75 0
1.82143 0.75 0
1.82143 0.625 0
1.92857 0.625 0
1.82143 0.75 0
1.92857 0.75 0
1.92857 0.5 0
2.03571 0.5 0
1.92857 0.625 0
2.03571 0.625 0
2.03571 0.5 0
2.14286 0.5 0
2.03571 0.625 0
2.14286 0.625 0
1.92857 0.625 0
2.03571 0.625 0
1.92857 0.75 0
2.03571 0.75 0
2.03571 0.625 0
2.14286 0.625 0
2.03571 0.75 0
2.14286 0.75 0
2.14286 0 0
2.25 0 0
2.14286 0.125 0
2.25 0.125 0
2.25 0 0
2.35714 0 0
2.25 0.125 0
2.35714 0.125 0
2.14286 0.125 0
2.25 0.125 0
2.14286 0.25 0
2.25 0.25 0
2.25 0.125 0
2.35714 0.125 0
2.25 0.25 0
2.35714 0.25 0
2.14286 0.25 0
2.25 0.25 0
2.14286 0.375 0
2.25 0.375 0
2.25 0.25 0
2.35714 0.25 0
2.25 0.375 0
2.35714 0.375 0
2.14286 0.375 0
2.25 0.375 0
2.14286 0.5 0
2.25 0.5 0
2.25 0.375 0
2.35714 0.375 0
2.25 0.5 0
2.35714 0.5 0
2.14286 0.5 0
2.25 0.5 0
2.14286 0.625 0
2.25 0.625 0
2.25 0.5 0
2.35714 0.5 0
2.25 0.625 0
2.35714 0.625 0
2.14286 0.625 0
2.25 0.625 0
2.14286 0.75 0
2.25 0.75 0
2.25 0.625 0
2.35714 0.625 0
2.25 0.75 0
2.35714 0.75 0
2.35714 0 0
2.46429 0 0
[...]
POINT_DATA 3648
VECTORS velocity double
0 0 0
0 0 0
0 0 0
-0.0115778 0.013027 0
0 0 0
-0.0115778 0.013027 0
0 0 0
-0.00157982 0.0285223 0
0 0 0
0 0 0
-0.0115778 0.013027 0
-0.0343708 0.0133447 0
-0.0115778 0.013027 0
-0.0343708 0.0133447 0
-0.00157982 0.0285223 0
-0.00175444 0.0249985 0
0 0 0
0 0 0
-0.0343708 0.0133447 0
-0.052374 0.00805182 0
-0.0343708 0.0133447 0
-0.052374 0.00805182 0
-0.00175444 0.0249985 0
-0.00268839 0.0185325 0
-0.00175444 0.0249985 0
-0.00268839 0.0185325 0
0.0206389 0.015854 0
0.0357999 0.0116164 0
0 0 0
0 0 0
-0.052374 0.00805182 0
-0.0586014 -0.000464282 0
-0.052374 0.00805182 0
-0.0586014 -0.000464282 0
-0.00268839 0.0185325 0
0.0032691 -0.0117153 0
-0.00268839 0.0185325 0
0.0032691 -0.0117153 0
0.0357999 0.0116164 0
0.0347198 -0.010383 0
0 0 0
0 0 0
-0.0586014 -0.000464282 0
-0.0484488 -0.0110648 0
-0.0586014 -0.000464282 0
-0.0484488 -0.0110648 0
0.0032691 -0.0117153 0
0.00723918 -0.0161378 0
0.0032691 -0.0117153 0
0.00723918 -0.0161378 0
0.0347198 -0.010383 0
0.0175064 -0.00105061 0
0 0 0
0 0 0
-0.0484488 -0.0110648 0
-0.00753476 -0.0389547 0
-0.0484488 -0.0110648 0
-0.00753476 -0.0389547 0
0.00723918 -0.0161378 0
-0.0201848 -0.0497909 0
0.00723918 -0.0161378 0
-0.0201848 -0.0497909 0
0.0175064 -0.00105061 0
0.0082273 -0.0226632 0
0 0 0
0 0 0
-0.00753476 -0.0389547 0
0.0727829 -0.0558924 0
-0.00753476 -0.0389547 0
0.0727829 -0.0558924 0
-0.0201848 -0.0497909 0
-0.0671857 -0.0821107 0
0 0 0
0 0 0
0.0727829 -0.0558924 0
0.0818108 0.0457105 0
0.0727829 -0.0558924 0
0.0818108 0.0457105 0
-0.0671857 -0.0821107 0
-0.0661079 0.057837 0
0 0 0
0 0 0
0.0818108 0.0457105 0
0.0280792 0.0167564 0
0.0818108 0.0457105 0
0.0280792 0.0167564 0
-0.0661079 0.057837 0
-0.0422473 0.0402863 0
0 0 0
0 0 0
0.0280792 0.0167564 0
-0.0104065 0.0269277 0
0.0280792 0.0167564 0
-0.0104065 0.0269277 0
-0.0422473 0.0402863 0
-0.0117746 0.0123126 0
0 0 0
0 0 0
0 0 0
-0.01168 -0.0131399 0
0 0 0
-0.01168 -0.0131399 0
0 0 0
-0.0346235 -0.0134035 0
0 0 0
-0.0346235 -0.0134035 0
0 0 0
-0.0525928 -0.00796321 0
0 0 0
-0.0525928 -0.00796321 0
0 0 0
-0.0586447 0.000571468 0
0 0 0
-0.0586447 0.000571468 0
0 0 0
-0.0484276 0.0110363 0
0 0 0
-0.0484276 0.0110363 0
0 0 0
-0.0074496 0.0390793 0
0 0 0
-0.0074496 0.0390793 0
0 0 0
0.0729284 0.0558421 0
0 0 0
0.0729284 0.0558421 0
0 0 0
0.0819033 -0.0457103 0
0 0 0
0.0819033 -0.0457103 0
0 0 0
0.0282311 -0.0167002 0
0 0 0
0.0282311 -0.0167002 0
0 0 0
-0.0103135 -0.0270435 0
0 0 0
0 0 0
-0.01168 -0.0131399 0
-0.00159284 -0.0287738 0
-0.01168 -0.0131399 0
-0.00159284 -0.0287738 0
-0.0346235 -0.0134035 0
-0.00172922 -0.0250554 0
-0.0346235 -0.0134035 0
-0.00172922 -0.0250554 0
-0.0525928 -0.00796321 0
-0.00261477 -0.0183471 0
-0.0525928 -0.00796321 0
-0.00261477 -0.0183471 0
-0.0586447 0.000571468 0
0.00339194 0.0119992 0
-0.0586447 0.000571468 0
0.00339194 0.0119992 0
-0.0484276 0.0110363 0
0.00743839 0.0160922 0
-0.0484276 0.0110363 0
0.00743839 0.0160922 0
-0.0074496 0.0390793 0
-0.0201636 0.049797 0
-0.0074496 0.0390793 0
-0.0201636 0.049797 0
0.0729284 0.0558421 0
-0.0672485 0.0821252 0
0.0729284 0.0558421 0
-0.0672485 0.0821252 0
0.0819033 -0.0457103 0
-0.0661011 -0.0578567 0
0.0819033 -0.0457103 0
-0.0661011 -0.0578567 0
0.0282311 -0.0167002 0
-0.0422517 -0.0401643 0
0.0282311 -0.0167002 0
-0.0422517 -0.0401643 0
-0.0103135 -0.0270435 0
-0.0117836 -0.0125583 0
-0.00172922 -0.0250554 0
0.0207898 -0.0159237 0
-0.00261477 -0.0183471 0
0.0358813 -0.011445 0
-0.00261477 -0.0183471 0
0.0358813 -0.011445 0
0.00339194 0.0119992 0
0.0346659 0.0105666 0
0.00339194 0.0119992 0
0.0346659 0.0105666 0
0.00743839 0.0160922 0
0.0172796 0.000972481 0
0.00743839 0.0160922 0
0.0172796 0.000972481 0
-0.0201636 0.049797 0
0.00809231 0.0226097 0
0.00662639 0.0210923 0
0.0152952 0.0227881 0
0.00344085 0.0117674 0
0.0107157 0.0133661 0
0.0152952 0.0227881 0
0.0206389 0.015854 0
0.0107157 0.0133661 0
0.0195923 0.00887558 0
0.00344085 0.0117674 0
0.0107157 0.0133661 0
0.0520111 -0.00336243 0
0.0740643 -0.00500992 0
0.0107157 0.0133661 0
0.0195923 0.00887558 0
0.0740643 -0.00500992 0
0.0929658 -0.00488675 0
0.0206389 0.015854 0
0.0276885 0.0132447 0
0.0195923 0.00887558 0
0.0249443 0.00600376 0
0.0276885 0.0132447 0
0.0357999 0.0116164 0
0.0249443 0.00600376 0
0.0296741 0.00421427 0
0.0195923 0.00887558 0
0.0249443 0.00600376 0
0.0929658 -0.00488675 0
0.109321 -0.0057523 0
0.0249443 0.00600376 0
0.0296741 0.00421427 0
0.109321 -0.0057523 0
0.123243 -0.00633408 0
0.0357999 0.0116164 0
0.0398065 0.00148562 0
0.0296741 0.00421427 0
0.0330581 0.000773333 0
0.0398065 0.00148562 0
0.0347198 -0.010383 0
0.0330581 0.000773333 0
0.0327091 -0.00267527 0
0.0296741 0.00421427 0
0.0330581 0.000773333 0
0.123243 -0.00633408 0
0.135372 -0.00747342 0
0.0330581 0.000773333 0
0.0327091 -0.00267527 0
0.135372 -0.00747342 0
0.146236 -0.00746968 0
0.0347198 -0.010383 0
0.0256551 -0.00683054 0
0.0327091 -0.00267527 0
0.0316485 -0.0023497 0
0.0256551 -0.00683054 0
0.0175064 -0.00105061 0
0.0316485 -0.0023497 0
0.0354495 -0.000221388 0
0.0327091 -0.00267527 0
0.0316485 -0.0023497 0
0.146236 -0.00746968 0
0.155895 -0.00850764 0
0.0316485 -0.0023497 0
0.0354495 -0.000221388 0
0.155895 -0.00850764 0
0.164016 -0.00894119 0
0.0175064 -0.00105061 0
0.0112554 -0.0101753 0
0.0354495 -0.000221388 0
0.0385154 -0.00696502 0
0.0112554 -0.0101753 0
0.0082273 -0.0226632 0
0.0385154 -0.00696502 0
0.0309265 -0.0129506 0
0.0354495 -0.000221388 0
0.0385154 -0.00696502 0
0.164016 -0.00894119 0
0.170696 -0.010358 0
0.0385154 -0.00696502 0
0.0309265 -0.0129506 0
0.170696 -0.010358 0
0.176528 -0.00774421 0
0.0520106 0.00336742 0
0.240621 0.0132486 0
0.0740859 0.00500622 0
0.233578 0.0122609 0
0.240621 0.0132486 0
0.157897 0.0065777 0
0.233578 0.0122609 0
0.15379 0.00622283 0
0.0740859 0.00500622 0
0.233578 0.0122609 0
0.0930121 0.00488291 0
0.226975 0.011199 0
0.233578 0.0122609 0
0.15379 0.00622283 0
0.226975 0.011199 0
0.15014 0.00566102 0
0.0930121 0.00488291 0
0.226975 0.011199 0
0.109394 0.00575827 0
0.220699 0.0102004 0
0.226975 0.011199 0
0.15014 0.00566102 0
0.220699 0.0102004 0
0.146945 0.00528382 0
0.109394 0.00575827 0
0.220699 0.0102004 0
0.123346 0.00635249 0
0.214662 0.0099642 0
0.220699 0.0102004 0
0.146945 0.00528382 0
0.214662 0.0099642 0
0.144058 0.00513329 0
0.123346 0.00635249 0
0.214662 0.0099642 0
0.135499 0.0075121 0
0.208643 0.00951953 0
0.214662 0.0099642 0
0.144058 0.00513329 0
0.208643 0.00951953 0
0.141437 0.00494509 0
0.135499 0.0075121 0
0.208643 0.00951953 0
0.146383 0.00750725 0
0.202475 0.00945471 0
0.208643 0.00951953 0
0.141437 0.00494509 0
0.202475 0.00945471 0
0.139046 0.00477124 0
0.146383 0.00750725 0
0.202475 0.00945471 0
0.156065 0.00854333 0
0.196145 0.00899947 0
0.202475 0.00945471 0
0.139046 0.00477124 0
0.196145 0.00899947 0
0.136858 0.00454335 0
0.156065 0.00854333 0
0.196145 0.00899947 0
0.164201 0.00897407 0
0.189827 0.00941863 0
0.196145 0.00899947 0
0.136858 0.00454335 0
0.189827 0.00941863 0
0.134772 0.00475595 0
0.164201 0.00897407 0
0.189827 0.00941863 0
0.170888 0.010396 0
0.183413 0.00875887 0
0.189827 0.00941863 0
0.134772 0.00475595 0
0.183413 0.00875887 0
0.132861 0.00409216 0
0.170888 0.010396 0
0.183413 0.00875887 0
0.176725 0.00776832 0
0.176956 0.00755912 0
0.183413 0.00875887 0
0.132861 0.00409216 0
0.176956 0.00755912 0
0.131331 0.00333704 0
0.158118 -0.00658591 0
0.240549 -0.0132467 0
0.154004 -0.00623037 0
0.233528 -0.0122634 0
0.240549 -0.0132467 0
0.0520111 -0.00336243 0
0.233528 -0.0122634 0
0.0740643 -0.00500992 0
0.154004 -0.00623037 0
0.233528 -0.0122634 0
0.150347 -0.00566555 0
0.226942 -0.0111992 0
0.233528 -0.0122634 0
0.0740643 -0.00500992 0
0.226942 -0.0111992 0
0.0929658 -0.00488675 0
0.150347 -0.00566555 0
0.226942 -0.0111992 0
0.147144 -0.0052842 0
0.220686 -0.0101942 0
0.226942 -0.0111992 0
0.0929658 -0.00488675 0
0.220686 -0.0101942 0
0.109321 -0.0057523 0
0.147144 -0.0052842 0
0.220686 -0.0101942 0
0.144251 -0.00512944 0
0.214674 -0.00994664 0
0.220686 -0.0101942 0
0.109321 -0.0057523 0
0.214674 -0.00994664 0
0.123243 -0.00633408 0
0.144251 -0.00512944 0
0.214674 -0.00994664 0
0.141626 -0.00493808 0
0.208689 -0.00949622 0
0.214674 -0.00994664 0
0.123243 -0.00633408 0
0.208689 -0.00949622 0
0.135372 -0.00747342 0
0.141626 -0.00493808 0
0.208689 -0.00949622 0
0.139232 -0.00476358 0
0.202558 -0.00942849 0
0.208689 -0.00949622 0
0.135372 -0.00747342 0
0.202558 -0.00942849 0
0.146236 -0.00746968 0
0.139232 -0.00476358 0
0.202558 -0.00942849 0
0.137037 -0.00453629 0
0.196267 -0.00897839 0
0.202558 -0.00942849 0
0.146236 -0.00746968 0
0.196267 -0.00897839 0
0.155895 -0.00850764 0
0.137037 -0.00453629 0
0.196267 -0.00897839 0
0.134943 -0.00474755 0
0.189985 -0.00939817 0
0.196267 -0.00897839 0
0.155895 -0.00850764 0
0.189985 -0.00939817 0
0.164016 -0.00894119 0
0.134943 -0.00474755 0
0.189985 -0.00939817 0
0.133021 -0.00408989 0
0.183603 -0.00874542 0
0.189985 -0.00939817 0
0.164016 -0.00894119 0
0.183603 -0.00874542 0
0.170696 -0.010358 0
0.133021 -0.00408989 0
0.183603 -0.00874542 0
0.131479 -0.00333654 0
0.177179 -0.00754931 0
0.183603 -0.00874542 0
0.170696 -0.010358 0
0.177179 -0.00754931 0
0.176528 -0.00774421 0
0.00673421 -0.0212761 0
0.00348253 -0.011857 0
0.0154456 -0.0229318 0
0.0108654 -0.0134289 0
0.00348253 -0.011857 0
0.0520106 0.00336742 0
0.0108654 -0.0134289 0
0.0740859 0.00500622 0
0.0154456 -0.0229318 0
0.0108654 -0.0134289 0
0.0207898 -0.0159237 0
0.0198162 -0.00893961 0
0.0108654 -0.0134289 0
0.0740859 0.00500622 0
0.0198162 -0.00893961 0
0.0930121 0.00488291 0
0.0207898 -0.0159237 0
0.0198162 -0.00893961 0
0.0277899 -0.0131947 0
0.0251875 -0.005995 0
0.0198162 -0.00893961 0
0.0930121 0.00488291 0
0.0251875 -0.005995 0
0.109394 0.00575827 0
0.0277899 -0.0131947 0
0.0251875 -0.005995 0
0.0358813 -0.011445 0
0.0298258 -0.00413114 0
0.0251875 -0.005995 0
0.109394 0.00575827 0
0.0298258 -0.00413114 0
0.123346 0.00635249 0
0.0358813 -0.011445 0
0.0298258 -0.00413114 0
0.0398525 -0.00130986 0
0.0330881 -0.000689531 0
0.0298258 -0.00413114 0
0.123346 0.00635249 0
0.0330881 -0.000689531 0
0.135499 0.0075121 0
0.0398525 -0.00130986 0
0.0330881 -0.000689531 0
0.0346659 0.0105666 0
0.0326549 0.00274013 0
0.0330881 -0.000689531 0
0.135499 0.0075121 0
0.0326549 0.00274013 0
0.146383 0.00750725 0
0.0346659 0.0105666 0
0.0326549 0.00274013 0
0.0254917 0.00689493 0
0.0315589 0.00237129 0
0.0326549 0.00274013 0
0.146383 0.00750725 0
0.0315589 0.00237129 0
0.156065 0.00854333 0
0.0254917 0.00689493 0
0.0315589 0.00237129 0
0.0172796 0.000972481 0
0.0354138 0.000183633 0
0.0315589 0.00237129 0
0.156065 0.00854333 0
0.0354138 0.000183633 0
0.164201 0.00897407 0
0.0172796 0.000972481 0
0.0354138 0.000183633 0
0.0110308 0.0100904 0
0.0385728 0.00695543 0
0.0354138 0.000183633 0
0.164201 0.00897407 0
0.0385728 0.00695543 0
0.170888 0.010396 0
0.0110308 0.0100904 0
0.0385728 0.00695543 0
0.00809231 0.0226097 0
0.0310237 0.0129727 0
0.0385728 0.00695543 0
0.170888 0.010396 0
0.0310237 0.0129727 0
0.176725 0.00776832 0
0 0 0
-0.000356986 0.0146182 0
0 0 0
0.00119475 0.0138896 0
-0.000356986 0.0146182 0
-0.00157982 0.0285223 0
0.00119475 0.0138896 0
0.00275721 0.0290394 0
0 0 0
0.00119475 0.0138896 0
0 0 0
9.72696e-05 0.012664 0
0.00119475 0.0138896 0
0.00275721 0.0290394 0
9.72696e-05 0.012664 0
0.00662639 0.0210923 0
-0.00157982 0.0285223 0
-0.0024509 0.026703 0
0.00275721 0.0290394 0
0.00397281 0.0260407 0
-0.0024509 0.026703 0
-0.00175444 0.0249985 0
0.00397281 0.0260407 0
0.00668498 0.0218966 0
0.00275721 0.0290394 0
0.00397281 0.0260407 0
0.00662639 0.0210923 0
0.0152952 0.0227881 0
0.00397281 0.0260407 0
0.00668498 0.0218966 0
0.0152952 0.0227881 0
0.0206389 0.015854 0
-0.0201848 -0.0497909 0
-0.0427365 -0.067593 0
-0.00955379 -0.0301954 0
-0.0304853 -0.0365193 0
-0.0427365 -0.067593 0
-0.0671857 -0.0821107 0
-0.0304853 -0.0365193 0
-0.061624 -0.0486548 0
-0.00955379 -0.0301954 0
-0.0304853 -0.0365193 0
0.0082273 -0.0226632 0
-0.0039904 -0.00496645 0
-0.0304853 -0.0365193 0
-0.061624 -0.0486548 0
-0.0039904 -0.00496645 0
-0.0378639 -0.00492091 0
0.0082273 -0.0226632 0
-0.0039904 -0.00496645 0
0.0309265 -0.0129506 0
0.0289649 0.00153153 0
-0.0039904 -0.00496645 0
-0.0378639 -0.00492091 0
0.0289649 0.00153153 0
0.0458718 0.00822613 0
0.0309265 -0.0129506 0
0.0289649 0.00153153 0
0.176528 -0.00774421 0
0.180983 -0.00710306 0
0.0289649 0.00153153 0
0.0458718 0.00822613 0
0.180983 -0.00710306 0
0.182681 -0.00472448 0
-0.0671857 -0.0821107 0
-0.0800997 -0.0102258 0
-0.061624 -0.0486548 0
-0.0759035 -0.010798 0
-0.0800997 -0.0102258 0
-0.0661079 0.057837 0
-0.0759035 -0.010798 0
-0.0625061 0.0259697 0
-0.061624 -0.0486548 0
-0.0759035 -0.010798 0
-0.0378639 -0.00492091 0
-0.0428847 -0.0311233 0
-0.0759035 -0.010798 0
-0.0625061 0.0259697 0
-0.0428847 -0.0311233 0
-0.0389352 0.0252903 0
-0.0661079 0.057837 0
-0.0458594 0.0484615 0
-0.0625061 0.0259697 0
-0.0480426 0.0397271 0
-0.0458594 0.0484615 0
-0.0422473 0.0402863 0
-0.0480426 0.0397271 0
-0.0329061 0.0270811 0
-0.0625061 0.0259697 0
-0.0480426 0.0397271 0
-0.0389352 0.0252903 0
-0.042432 0.0280003 0
-0.0480426 0.0397271 0
-0.0329061 0.0270811 0
-0.042432 0.0280003 0
-0.0226772 -0.00180088 0
-0.0422473 0.0402863 0
-0.0372766 0.0271618 0
-0.0329061 0.0270811 0
-0.00168238 -0.0019847 0
-0.0372766 0.0271618 0
-0.0117746 0.0123126 0
-0.00168238 -0.0019847 0
0.0135555 -0.00657058 0
-0.0329061 0.0270811 0
-0.00168238 -0.0019847 0
-0.0226772 -0.00180088 0
-0.0231753 -0.00871512 0
-0.00168238 -0.0019847 0
0.0135555 -0.00657058 0
-0.0231753 -0.00871512 0
-0.0295634 -0.0098573 0
0 0 0
0 0 0
-0.0030669 0.00667792 0
-0.0381912 0.0341452 0
0 0 0
0 0 0
-0.0381912 0.0341452 0
-0.0374908 -0.0338187 0
-0.0030669 0.00667792 0
-0.0381912 0.0341452 0
-0.0104065 0.0269277 0
0.0126376 0.027888 0
-0.0381912 0.0341452 0
-0.0374908 -0.0338187 0
0.0126376 0.027888 0
0.0145031 -0.0297969 0
-0.0104065 0.0269277 0
0.0126376 0.027888 0
-0.0113598 0.0368885 0
0.00718526 -0.0295028 0
0.0126376 0.027888 0
0.0145031 -0.0297969 0
0.00718526 -0.0295028 0
-0.00348606 0.0371385 0
-0.0113598 0.0368885 0
0.00718526 -0.0295028 0
-0.0117746 0.0123126 0
-0.00643642 -0.0309334 0
0.00718526 -0.0295028 0
-0.00348606 0.0371385 0
-0.00643642 -0.0309334 0
-0.0206063 0.0666805 0
-0.0117746 0.0123126 0
-0.00643642 -0.0309334 0
0.0135555 -0.00657058 0
-0.00990721 0.00862496 0
-0.00643642 -0.0309334 0
-0.0206063 0.0666805 0
-0.00990721 0.00862496 0
-0.0208192 0.0558361 0
0.0135555 -0.00657058 0
-0.00990721 0.00862496 0
-0.0295634 -0.0098573 0
-0.0112363 0.0177899 0
-0.00990721 0.00862496 0
-0.0208192 0.0558361 0
-0.0112363 0.0177899 0
0.00983095 0.035019 0
0 0 0
0 0 0
-0.0374908 -0.0338187 0
-0.018259 0.0102784 0
0 0 0
0 0 0
-0.018259 0.0102784 0
-0.0231259 -0.0037094 0
-0.0374908 -0.0338187 0
-0.018259 0.0102784 0
0.0145031 -0.0297969 0
-0.0292116 0.0336435 0
-0.018259 0.0102784 0
-0.0231259 -0.0037094 0
-0.0292116 0.0336435 0
-0.0441524 -0.00227935 0
0.0145031 -0.0297969 0
-0.0292116 0.0336435 0
-0.00348606 0.0371385 0
-0.0283599 0.0465916 0
-0.0292116 0.0336435 0
-0.0441524 -0.00227935 0
-0.0283599 0.0465916 0
-0.0267884 0.00126111 0
-0.00348606 0.0371385 0
-0.0283599 0.0465916 0
-0.0206063 0.0666805 0
-0.00357656 0.0261037 0
-0.0283599 0.0465916 0
-0.0267884 0.00126111 0
-0.00357656 0.0261037 0
0.0180158 -0.00515028 0
-0.0206063 0.0666805 0
-0.00357656 0.0261037 0
-0.0208192 0.0558361 0
-0.0160816 0.0114228 0
-0.00357656 0.0261037 0
0.0180158 -0.00515028 0
-0.0160816 0.0114228 0
-0.0158084 -0.0158192 0
-0.0208192 0.0558361 0
-0.0160816 0.0114228 0
0.00983095 0.035019 0
0.0204085 0.0139533 0
-0.0160816 0.0114228 0
-0.0158084 -0.0158192 0
0.0204085 0.0139533 0
0.00559095 -0.00148417 0
0 0 0
0 0 0
-0.0231259 -0.0037094 0
-0.0169445 -0.00407011 0
0 0 0
0 0 0
-0.0169445 -0.00407011 0
-0.0040471 -0.0107054 0
-0.0231259 -0.0037094 0
-0.0169445 -0.00407011 0
-0.0441524 -0.00227935 0
-0.0421635 -0.0157119 0
-0.0169445 -0.00407011 0
-0.0040471 -0.0107054 0
-0.0421635 -0.0157119 0
-0.0285576 -0.0294614 0
-0.0441524 -0.00227935 0
-0.0421635 -0.0157119 0
-0.0267884 0.00126111 0
-0.0303225 -0.0177985 0
-0.0421635 -0.0157119 0
-0.0285576 -0.0294614 0
-0.0303225 -0.0177985 0
-0.0309928 -0.0424084 0
-0.0267884 0.00126111 0
-0.0303225 -0.0177985 0
0.0180158 -0.00515028 0
0.01023 0.00135663 0
-0.0303225 -0.0177985 0
-0.0309928 -0.0424084 0
0.01023 0.00135663 0
-0.0107697 -0.036363 0
0.0180158 -0.00515028 0
0.01023 0.00135663 0
-0.0158084 -0.0158192 0
-0.00401374 0.00731733 0
0.01023 0.00135663 0
-0.0107697 -0.036363 0
-0.00401374 0.00731733 0
-0.000711526 -0.0217211 0
-0.0158084 -0.0158192 0
-0.00401374 0.00731733 0
0.00559095 -0.00148417 0
0.00146393 -0.0166621 0
-0.00401374 0.00731733 0
-0.000711526 -0.0217211 0
0.00146393 -0.0166621 0
0.002748 -0.00331353 0
0 0 0
0 0 0
-0.0040471 -0.0107054 0
0.00264951 0.00291583 0
0 0 0
0 0 0
0.00264951 0.00291583 0
0 0 0
-0.0040471 -0.0107054 0
0.00264951 0.00291583 0
-0.0285576 -0.0294614 0
-0.010721 -0.00678997 0
0.00264951 0.00291583 0
0 0 0
-0.010721 -0.00678997 0
0 0 0
-0.0285576 -0.0294614 0
-0.010721 -0.00678997 0
-0.0309928 -0.0424084 0
-0.0132938 -0.0353619 0
-0.010721 -0.00678997 0
0 0 0
-0.0132938 -0.0353619 0
0 0 0
-0.0309928 -0.0424084 0
-0.0132938 -0.0353619 0
-0.0107697 -0.036363 0
-0.00998144 -0.0628072 0
-0.0132938 -0.0353619 0
0 0 0
-0.00998144 -0.0628072 0
0 0 0
-0.0107697 -0.036363 0
-0.00998144 -0.0628072 0
-0.000711526 -0.0217211 0
-0.00207297 -0.0770221 0
-0.00998144 -0.0628072 0
0 0 0
-0.00207297 -0.0770221 0
0 0 0
-0.000711526 -0.0217211 0
-0.00207297 -0.0770221 0
0.002748 -0.00331353 0
-0.0053123 -0.0856487 0
-0.00207297 -0.0770221 0
0 0 0
-0.0053123 -0.0856487 0
0 0 0
0.176725 0.00776832 0
0.176956 0.00755912 0
0.181181 0.0071302 0
0.171537 0.00571123 0
0.176956 0.00755912 0
0.131331 0.00333704 0
0.171537 0.00571123 0
0.130165 0.0025999 0
0.181181 0.0071302 0
0.171537 0.00571123 0
0.182869 0.00473694 0
0.168286 0.00372259 0
0.171537 0.00571123 0
0.130165 0.0025999 0
0.168286 0.00372259 0
0.129039 0.0018314 0
0.165957 0.00679713 0
0.107497 0.00597105 0
0.161922 0.00664768 0
0.110067 0.00577744 0
0.107497 0.00597105 0
0.227785 3.03179e-06 0
0.110067 0.00577744 0
0.215207 2.86452e-06 0
0.161922 0.00664768 0
0.110067 0.00577744 0
0.157897 0.0065777 0
0.112203 0.00528094 0
0.110067 0.00577744 0
0.215207 2.86452e-06 0
0.112203 0.00528094 0
0.203726 2.89249e-06 0
0.157897 0.0065777 0
0.112203 0.00528094 0
0.15379 0.00622283 0
0.114163 0.00503143 0
0.112203 0.00528094 0
0.203726 2.89249e-06 0
0.114163 0.00503143 0
0.19315 2.94466e-06 0
0.15379 0.00622283 0
0.114163 0.00503143 0
0.15014 0.00566102 0
0.115864 0.00455364 0
0.114163 0.00503143 0
0.19315 2.94466e-06 0
0.115864 0.00455364 0
0.18347 3.52197e-06 0
0.15014 0.00566102 0
0.115864 0.00455364 0
0.146945 0.00528382 0
0.117281 0.00432126 0
0.115864 0.00455364 0
0.18347 3.52197e-06 0
0.117281 0.00432126 0
0.174703 4.19947e-06 0
0.146945 0.00528382 0
0.117281 0.00432126 0
0.144058 0.00513329 0
0.11838 0.00391479 0
0.117281 0.00432126 0
0.174703 4.19947e-06 0
0.11838 0.00391479 0
0.166844 4.77179e-06 0
0.144058 0.00513329 0
0.11838 0.00391479 0
0.141437 0.00494509 0
0.11912 0.00385919 0
0.11838 0.00391479 0
0.166844 4.77179e-06 0
0.11912 0.00385919 0
0.159804 5.36505e-06 0
0.141437 0.00494509 0
0.11912 0.00385919 0
0.139046 0.00477124 0
0.119512 0.00343935 0
0.11912 0.00385919 0
0.159804 5.36505e-06 0
0.119512 0.00343935 0
0.153444 5.23882e-06 0
0.139046 0.00477124 0
0.119512 0.00343935 0
0.136858 0.00454335 0
0.119557 0.00345675 0
0.119512 0.00343935 0
0.153444 5.23882e-06 0
0.119557 0.00345675 0
0.147748 6.41296e-06 0
0.136858 0.00454335 0
0.119557 0.00345675 0
0.134772 0.00475595 0
0.11932 0.00309329 0
0.119557 0.00345675 0
0.147748 6.41296e-06 0
0.11932 0.00309329 0
0.142724 6.10446e-06 0
0.134772 0.00475595 0
0.11932 0.00309329 0
0.132861 0.00409216 0
0.118954 0.00309148 0
0.11932 0.00309329 0
0.142724 6.10446e-06 0
0.118954 0.00309148 0
0.138223 4.23433e-06 0
0.132861 0.00409216 0
0.118954 0.00309148 0
0.131331 0.00333704 0
0.118632 0.00235694 0
0.118954 0.00309148 0