# vtk DataFile Version 3.0
#This file was generated by the deal.II library on 2026/3/26 at 11:13:02
ASCII
DATASET UNSTRUCTURED_GRID

POINTS 3648 double
0 0 0
0.214286 0 0
0 0.25 0
0.214286 0.25 0
0 0.25 0
0.214286 0.25 0
0 0.5 0
0.214286 0.5 0
0.214286 0 0
0.428571 0 0
0.214286 0.25 0
0.428571 0.25 0
0.214286 0.25 0
0.428571 0.25 0
0.214286 0.5 0
0.428571 0.5 0
0.428571 0 0
0.642857 0 0
0.428571 0.25 0
0.642857 0.25 0
0.428571 0.25 0
0.642857 0.25 0
0.428571 0.5 0
0.642857 0.5 0
0.428571 0.5 0
0.642857 0.5 0
0.428571 0.75 0
0.642857 0.75 0
0.642857 0 0
0.857143 0 0
0.642857 0.25 0
0.857143 0.25 0
0.642857 0.25 0
0.857143 0.25 0
0.642857 0.5 0
0.857143 0.5 0
0.642857 0.5 0
0.857143 0.5 0
0.642857 0.75 0
0.857143 0.75 0
0.857143 0 0
1.07143 0 0
0.857143 0.25 0
1.07143 0.25 0
0.857143 0.25 0
1.07143 0.25 0
0.857143 0.5 0
1.07143 0.5 0
0.857143 0.5 0
1.07143 0.5 0
0.857143 0.75 0
1.07143 0.75 0
1.07143 0 0
1.28571 0 0
1.07143 0.25 0
1.28571 0.25 0
1.07143 0.25 0
1.28571 0.25 0
1.07143 0.5 0
1.28571 0.5 0
1.07143 0.5 0
1.28571 0.5 0
1.07143 0.75 0
1.28571 0.75 0
1.28571 0 0
1.5 0 0
1.28571 0.25 0
1.5 0.25 0
1.28571 0.25 0
1.5 0.25 0
1.28571 0.5 0
1.5 0.5 0
1.5 0 0
1.71429 0 0
1.5 0.25 0
1.71429 0.25 0
1.5 0.25 0
1.71429 0.25 0
1.5 0.5 0
1.71429 0.5 0
1.71429 0 0
1.92857 0 0
1.71429 0.25 0
1.92857 0.25 0
1.71429 0.25 0
1.92857 0.25 0
1.71429 0.5 0
1.92857 0.5 0
1.92857 0 0
2.14286 0 0
1.92857 0.25 0
2.14286 0.25 0
1.92857 0.25 0
2.14286 0.25 0
1.92857 0.5 0
2.14286 0.5 0
0 3 0
0 2.75 0
0.214286 3 0
0.214286 2.75 0
0.214286 3 0
0.214286 2.75 0
0.428571 3 0
0.428571 2.75 0
0.428571 3 0
0.428571 2.75 0
0.642857 3 0
0.642857 2.75 0
0.642857 3 0
0.642857 2.75 0
0.857143 3 0
0.857143 2.75 0
0.857143 3 0
0.857143 2.75 0
1.07143 3 0
1.07143 2.75 0
1.07143 3 0
1.07143 2.75 0
1.28571 3 0
1.28571 2.75 0
1.28571 3 0
1.28571 2.75 0
1.5 3 0
1.5 2.75 0
1.5 3 0
1.5 2.75 0
1.71429 3 0
1.71429 2.75 0
1.71429 3 0
1.71429 2.75 0
1.92857 3 0
1.92857 2.75 0
1.92857 3 0
1.92857 2.75 0
2.14286 3 0
2.14286 2.75 0
0 2.75 0
0 2.5 0
0.214286 2.75 0
0.214286 2.5 0
0.214286 2.75 0
0.214286 2.5 0
0.428571 2.75 0
0.428571 2.5 0
0.428571 2.75 0
0.428571 2.5 0
0.642857 2.75 0
0.642857 2.5 0
0.642857 2.75 0
0.642857 2.5 0
0.857143 2.75 0
0.857143 2.5 0
0.857143 2.75 0
0.857143 2.5 0
1.07143 2.75 0
1.07143 2.5 0
1.07143 2.75 0
1.07143 2.5 0
1.28571 2.75 0
1.28571 2.5 0
1.28571 2.75 0
1.28571 2.5 0
1.5 2.75 0
1.5 2.5 0
1.5 2.75 0
1.5 2.5 0
1.71429 2.75 0
1.71429 2.5 0
1.71429 2.75 0
1.71429 2.5 0
1.92857 2.75 0
1.92857 2.5 0
1.92857 2.75 0
1.92857 2.5 0
2.14286 2.75 0
2.14286 2.5 0
0.428571 2.5 0
0.428571 2.25 0
0.642857 2.5 0
0.642857 2.25 0
0.642857 2.5 0
0.642857 2.25 0
0.857143 2.5 0
0.857143 2.25 0
0.857143 2.5 0
0.857143 2.25 0
1.07143 2.5 0
1.07143 2.25 0
1.07143 2.5 0
1.07143 2.25 0
1.28571 2.5 0
1.28571 2.25 0
0.214286 0.75 0
0.321429 0.75 0
0.214286 0.875 0
0.321429 0.875 0
0.321429 0.75 0
0.428571 0.75 0
0.321429 0.875 0
0.428571 0.875 0
0.214286 0.875 0
0.321429 0.875 0
0.214286 1 0
0.321429 1 0
0.321429 0.875 0
0.428571 0.875 0
0.321429 1 0
0.428571 1 0
0.428571 0.75 0
0.535714 0.75 0
0.428571 0.875 0
0.535714 0.875 0
0.535714 0.75 0
0.642857 0.75 0
0.535714 0.875 0
0.642857 0.875 0
0.428571 0.875 0
0.535714 0.875 0
0.428571 1 0
0.535714 1 0
0.535714 0.875 0
0.642857 0.875 0
0.535714 1 0
0.642857 1 0
0.642857 0.75 0
0.75 0.75 0
0.642857 0.875 0
0.75 0.875 0
0.75 0.75 0
0.857143 0.75 0
0.75 0.875 0
0.857143 0.875 0
0.642857 0.875 0
0.75 0.875 0
0.642857 1 0
0.75 1 0
0.75 0.875 0
0.857143 0.875 0
0.75 1 0
0.857143 1 0
0.857143 0.75 0
0.964286 0.75 0
0.857143 0.875 0
0.964286 0.875 0
0.964286 0.75 0
1.07143 0.75 0
0.964286 0.875 0
1.07143 0.875 0
0.857143 0.875 0
0.964286 0.875 0
0.857143 1 0
0.964286 1 0
0.964286 0.875 0
1.07143 0.875 0
0.964286 1 0
1.07143 1 0
1.07143 0.75 0
1.17857 0.75 0
1.07143 0.875 0
1.17857 0.875 0
1.17857 0.75 0
1.28571 0.75 0
1.17857 0.875 0
1.28571 0.875 0
1.07143 0.875 0
1.17857 0.875 0
1.07143 1 0
1.17857 1 0
1.17857 0.875 0
1.28571 0.875 0
1.17857 1 0
1.28571 1 0
0.214286 2 0
0.214286 1.875 0
0.321429 2 0
0.321429 1.875 0
0.214286 1.875 0
0.214286 1.75 0
0.321429 1.875 0
0.321429 1.75 0
0.321429 2 0
0.321429 1.875 0
0.428571 2 0
0.428571 1.875 0
0.321429 1.875 0
0.321429 1.75 0
0.428571 1.875 0
0.428571 1.75 0
0.428571 2 0
0.428571 1.875 0
0.535714 2 0
0.535714 1.875 0
0.428571 1.875 0
0.428571 1.75 0
0.535714 1.875 0
0.535714 1.75 0
0.535714 2 0
0.535714 1.875 0
0.642857 2 0
0.642857 1.875 0
0.535714 1.875 0
0.535714 1.75 0
0.642857 1.875 0
0.642857 1.75 0
0.642857 2 0
0.642857 1.875 0
0.75 2 0
0.75 1.875 0
0.642857 1.875 0
0.642857 1.75 0
0.75 1.875 0
0.75 1.75 0
0.75 2 0
0.75 1.875 0
0.857143 2 0
0.857143 1.875 0
0.75 1.875 0
0.75 1.75 0
0.857143 1.875 0
0.857143 1.75 0
0.857143 2 0
0.857143 1.875 0
0.964286 2 0
0.964286 1.875 0
0.857143 1.875 0
0.857143 1.75 0
0.964286 1.875 0
0.964286 1.75 0
0.964286 2 0
0.964286 1.875 0
1.07143 2 0
1.07143 1.875 0
0.964286 1.875 0
0.964286 1.75 0
1.07143 1.875 0
1.07143 1.75 0
1.07143 2 0
1.07143 1.875 0
1.17857 2 0
1.17857 1.875 0
1.07143 1.875 0
1.07143 1.75 0
1.17857 1.875 0
1.17857 1.75 0
1.17857 2 0
1.17857 1.875 0
1.28571 2 0
1.28571 1.875 0
1.17857 1.875 0
1.17857 1.75 0
1.28571 1.875 0
1.28571 1.75 0
0.214286 1.25 0
0.214286 1.125 0
0.321429 1.25 0
0.321429 1.125 0
0.214286 1.125 0
0.214286 1 0
0.321429 1.125 0
0.321429 1 0
0.321429 1.25 0
0.321429 1.125 0
0.428571 1.25 0
0.428571 1.125 0
0.321429 1.125 0
0.321429 1 0
0.428571 1.125 0
0.428571 1 0
0.428571 1.25 0
0.428571 1.125 0
0.535714 1.25 0
0.535714 1.125 0
0.428571 1.125 0
0.428571 1 0
0.535714 1.125 0
0.535714 1 0
0.535714 1.25 0
0.535714 1.125 0
0.642857 1.25 0
0.642857 1.125 0
0.535714 1.125 0
0.535714 1 0
0.642857 1.125 0
0.642857 1 0
0.642857 1.25 0
0.642857 1.125 0
0.75 1.25 0
0.75 1.125 0
0.642857 1.125 0
0.642857 1 0
0.75 1.125 0
0.75 1 0
0.75 1.25 0
0.75 1.125 0
0.857143 1.25 0
0.857143 1.125 0
0.75 1.125 0
0.75 1 0
0.857143 1.125 0
0.857143 1 0
0.857143 1.25 0
0.857143 1.125 0
0.964286 1.25 0
0.964286 1.125 0
0.857143 1.125 0
0.857143 1 0
0.964286 1.125 0
0.964286 1 0
0.964286 1.25 0
0.964286 1.125 0
1.07143 1.25 0
1.07143 1.125 0
0.964286 1.125 0
0.964286 1 0
1.07143 1.125 0
1.07143 1 0
1.07143 1.25 0
1.07143 1.125 0
1.17857 1.25 0
1.17857 1.125 0
1.07143 1.125 0
1.07143 1 0
1.17857 1.125 0
1.17857 1 0
1.17857 1.25 0
1.17857 1.125 0
1.28571 1.25 0
1.28571 1.125 0
1.17857 1.125 0
1.17857 1 0
1.28571 1.125 0
1.28571 1 0
0.214286 2.25 0
0.214286 2.125 0
0.321429 2.25 0
0.321429 2.125 0
0.214286 2.125 0
0.214286 2 0
0.321429 2.125 0
0.321429 2 0
0.321429 2.25 0
0.321429 2.125 0
0.428571 2.25 0
0.428571 2.125 0
0.321429 2.125 0
0.321429 2 0
0.428571 2.125 0
0.428571 2 0
0.428571 2.25 0
0.428571 2.125 0
0.535714 2.25 0
0.535714 2.125 0
0.428571 2.125 0
0.428571 2 0
0.535714 2.125 0
0.535714 2 0
0.535714 2.25 0
0.535714 2.125 0
0.642857 2.25 0
0.642857 2.125 0
0.535714 2.125 0
0.535714 2 0
0.642857 2.125 0
0.642857 2 0
0.642857 2.25 0
0.642857 2.125 0
0.75 2.25 0
0.75 2.125 0
0.642857 2.125 0
0.642857 2 0
0.75 2.125 0
0.75 2 0
0.75 2.25 0
0.75 2.125 0
0.857143 2.25 0
0.857143 2.125 0
0.75 2.125 0
0.75 2 0
0.857143 2.125 0
0.857143 2 0
0.857143 2.25 0
0.857143 2.125 0
0.964286 2.25 0
0.964286 2.125 0
0.857143 2.125 0
0.857143 2 0
0.964286 2.125 0
0.964286 2 0
0.964286 2.25 0
0.964286 2.125 0
1.07143 2.25 0
1.07143 2.125 0
0.964286 2.125 0
0.964286 2 0
1.07143 2.125 0
1.07143 2 0
1.07143 2.25 0
1.07143 2.125 0
1.17857 2.25 0
1.17857 2.125 0
1.07143 2.125 0
1.07143 2 0
1.17857 2.125 0
1.17857 2 0
1.17857 2.25 0
1.17857 2.125 0
1.28571 2.25 0
1.28571 2.125 0
1.17857 2.125 0
1.17857 2 0
1.28571 2.125 0
1.28571 2 0
0 0.5 0
0.107143 0.5 0
0 0.625 0
0.107143 0.625 0
0.107143 0.5 0
0.214286 0.5 0
0.107143 0.625 0
0.214286 0.625 0
0 0.625 0
0.107143 0.625 0
0 0.75 0
0.107143 0.75 0
0.107143 0.625 0
0.214286 0.625 0
0.107143 0.75 0
0.214286 0.75 0
0.214286 0.5 0
0.321429 0.5 0
0.214286 0.625 0
0.321429 0.625 0
0.321429 0.5 0
0.428571 0.5 0
0.321429 0.625 0
0.428571 0.625 0
0.214286 0.625 0
0.321429 0.625 0
0.214286 0.75 0
0.321429 0.75 0
0.321429 0.625 0
0.428571 0.625 0
0.321429 0.75 0
0.428571 0.75 0
1.28571 0.5 0
1.39286 0.5 0
1.28571 0.625 0
1.39286 0.625 0
1.39286 0.5 0
1.5 0.5 0
1.39286 0.625 0
1.5 0.625 0
1.28571 0.625 0
1.39286 0.625 0
1.28571 0.75 0
1.39286 0.75 0
1.39286 0.625 0
1.5 0.625 0
1.39286 0.75 0
1.5 0.75 0
1.28571 0.75 0
1.39286 0.75 0
1.28571 0.875 0
1.39286 0.875 0
1.39286 0.75 0
1.5 0.75 0
1.39286 0.875 0
1.5 0.875 0
1.28571 0.875 0
1.39286 0.875 0
1.28571 1 0
1.39286 1 0
1.39286 0.875 0
1.5 0.875 0
1.39286 1 0
1.5 1 0
1.5 0.5 0
1.60714 0.5 0
1.5 0.625 0
1.60714 0.625 0
1.60714 0.5 0
1.71429 0.5 0
1.60714 0.625 0
1.71429 0.625 0
1.5 0.625 0
1.60714 0.625 0
1.5 0.75 0
1.60714 0.75 0
1.60714 0.625 0
1.71429 0.625 0
1.60714 0.75 0
1.71429 0.75 0
1.71429 0.5 0
1.82143 0.5 0
1.71429 0.625 0
1.82143 0.625 0
1.82143 0.5 0
1.92857 0.5 0
1.82143 0.625 0
1.92857 0.625 0
1.71429 0.625 0
1.82143 0.625 0
1.71429 0.75 0
1.82143 0.75 0
1.82143 0.625 0
1.92857 0.625 0
1.82143 0.75 0
1.92857 0.75 0
1.92857 0.5 0
2.03571 0.5 0
1.92857 0.625 0
2.03571 0.625 0
2.03571 0.5 0
2.14286 0.5 0
2.03571 0.625 0
2.14286 0.625 0
1.92857 0.625 0
2.03571 0.625 0
1.92857 0.75 0
2.03571 0.75 0
2.03571 0.625 0
2.14286 0.625 0
2.03571 0.75 0
2.14286 0.75 0
2.14286 0 0
2.25 0 0
2.14286 0.125 0
2.25 0.125 0
2.25 0 0
2.35714 0 0
2.25 0.125 0
2.35714 0.125 0
2.14286 0.125 0
2.25 0.125 0
2.14286 0.25 0
2.25 0.25 0
2.25 0.125 0
2.35714 0.125 0
2.25 0.25 0
2.35714 0.25 0
2.14286 0.25 0
2.25 0.25 0
2.14286 0.375 0
2.25 0.375 0
2.25 0.25 0
2.35714 0.25 0
2.25 0.375 0
2.35714 0.375 0
2.14286 0.375 0
2.25 0.375 0
2.14286 0.5 0
2.25 0.5 0
2.25 0.375 0
2.35714 0.375 0
2.25 0.5 0
2.35714 0.5 0
2.14286 0.5 0
2.25 0.5 0
2.14286 0.625 0
2.25 0.625 0
2.25 0.5 0
2.35714 0.5 0
2.25 0.625 0
2.35714 0.625 0
2.14286 0.625 0
2.25 0.625 0
2.14286 0.75 0
2.25 0.75 0
2.25 0.625 0
2.35714 0.625 0
2.25 0.75 0
2.35714 0.75 0
2.35714 0 0
2.46429 0 0
[...]
POINT_DATA 3648
VECTORS velocity double
0 0 0
0 0 0
0 0 0
-0.000416085 0.00056148 0
0 0 0
-0.000416085 0.00056148 0
0 0 0
-0.00246974 0.00386787 0
0 0 0
0 0 0
-0.000416085 0.00056148 0
-0.00140473 0.00074625 0
-0.000416085 0.00056148 0
-0.00140473 0.00074625 0
-0.00246974 0.00386787 0
-0.00642376 0.00315004 0
0 0 0
0 0 0
-0.00140473 0.00074625 0
-0.00239687 0.000569822 0
-0.00140473 0.00074625 0
-0.00239687 0.000569822 0
-0.00642376 0.00315004 0
-0.00928501 0.00259431 0
-0.00642376 0.00315004 0
-0.00928501 0.00259431 0
-0.00550183 0.00726922 0
-0.00935016 0.0063699 0
0 0 0
0 0 0
-0.00239687 0.000569822 0
-0.00307626 0.00039433 0
-0.00239687 0.000569822 0
-0.00307626 0.00039433 0
-0.00928501 0.00259431 0
-0.011418 0.00159647 0
-0.00928501 0.00259431 0
-0.011418 0.00159647 0
-0.00935016 0.0063699 0
-0.0126123 0.00416711 0
0 0 0
0 0 0
-0.00307626 0.00039433 0
-0.00352458 0.000322888 0
-0.00307626 0.00039433 0
-0.00352458 0.000322888 0
-0.011418 0.00159647 0
-0.01197 0.000263504 0
-0.011418 0.00159647 0
-0.01197 0.000263504 0
-0.0126123 0.00416711 0
-0.0163991 0.00281553 0
0 0 0
0 0 0
-0.00352458 0.000322888 0
-0.00354622 -0.000147985 0
-0.00352458 0.000322888 0
-0.00354622 -0.000147985 0
-0.01197 0.000263504 0
-0.0113053 -0.000927068 0
-0.01197 0.000263504 0
-0.0113053 -0.000927068 0
-0.0163991 0.00281553 0
-0.020974 0.00102839 0
0 0 0
0 0 0
-0.00354622 -0.000147985 0
-0.00180208 -0.00172593 0
-0.00354622 -0.000147985 0
-0.00180208 -0.00172593 0
-0.0113053 -0.000927068 0
-0.00843136 -0.00637989 0
0 0 0
0 0 0
-0.00180208 -0.00172593 0
0.00322794 -0.00393749 0
-0.00180208 -0.00172593 0
0.00322794 -0.00393749 0
-0.00843136 -0.00637989 0
-0.00169321 -0.0129816 0
0 0 0
0 0 0
0.00322794 -0.00393749 0
0.00647757 0.000277578 0
0.00322794 -0.00393749 0
0.00647757 0.000277578 0
-0.00169321 -0.0129816 0
0.00329806 -0.000144368 0
0 0 0
0 0 0
0.00647757 0.000277578 0
-0.00305098 0.0106934 0
0.00647757 0.000277578 0
-0.00305098 0.0106934 0
0.00329806 -0.000144368 0
0.00445107 0.0208616 0
0 0 0
0 0 0
0 0 0
-0.000416085 -0.00056148 0
0 0 0
-0.000416085 -0.00056148 0
0 0 0
-0.00140473 -0.00074625 0
0 0 0
-0.00140473 -0.00074625 0
0 0 0
-0.00239687 -0.000569822 0
0 0 0
-0.00239687 -0.000569822 0
0 0 0
-0.00307626 -0.00039433 0
0 0 0
-0.00307626 -0.00039433 0
0 0 0
-0.00352458 -0.000322888 0
0 0 0
-0.00352458 -0.000322888 0
0 0 0
-0.00354622 0.000147985 0
0 0 0
-0.00354622 0.000147985 0
0 0 0
-0.00180208 0.00172593 0
0 0 0
-0.00180208 0.00172593 0
0 0 0
0.00322794 0.00393749 0
0 0 0
0.00322794 0.00393749 0
0 0 0
0.00647757 -0.000277578 0
0 0 0
0.00647757 -0.000277578 0
0 0 0
-0.00305098 -0.0106934 0
0 0 0
0 0 0
-0.000416085 -0.00056148 0
-0.00246974 -0.00386787 0
-0.000416085 -0.00056148 0
-0.00246974 -0.00386787 0
-0.00140473 -0.00074625 0
-0.00642376 -0.00315004 0
-0.00140473 -0.00074625 0
-0.00642376 -0.00315004 0
-0.00239687 -0.000569822 0
-0.00928501 -0.00259431 0
-0.00239687 -0.000569822 0
-0.00928501 -0.00259431 0
-0.00307626 -0.00039433 0
-0.011418 -0.00159647 0
-0.00307626 -0.00039433 0
-0.011418 -0.00159647 0
-0.00352458 -0.000322888 0
-0.01197 -0.000263504 0
-0.00352458 -0.000322888 0
-0.01197 -0.000263504 0
-0.00354622 0.000147985 0
-0.0113053 0.000927068 0
-0.00354622 0.000147985 0
-0.0113053 0.000927068 0
-0.00180208 0.00172593 0
-0.00843136 0.00637989 0
-0.00180208 0.00172593 0
-0.00843136 0.00637989 0
0.00322794 0.00393749 0
-0.00169321 0.0129816 0
0.00322794 0.00393749 0
-0.00169321 0.0129816 0
0.00647757 -0.000277578 0
0.00329806 0.000144368 0
0.00647757 -0.000277578 0
0.00329806 0.000144368 0
-0.00305098 -0.0106934 0
0.00445107 -0.0208616 0
-0.00642376 -0.00315004 0
-0.00550183 -0.00726922 0
-0.00928501 -0.00259431 0
-0.00935016 -0.0063699 0
-0.00928501 -0.00259431 0
-0.00935016 -0.0063699 0
-0.011418 -0.00159647 0
-0.0126123 -0.00416711 0
-0.011418 -0.00159647 0
-0.0126123 -0.00416711 0
-0.01197 -0.000263504 0
-0.0163991 -0.00281553 0
-0.01197 -0.000263504 0
-0.0163991 -0.00281553 0
-0.0113053 0.000927068 0
-0.020974 -0.00102839 0
-0.000380606 0.00876538 0
-0.00305654 0.00813535 0
-0.0128373 0.00857703 0
-0.00889199 0.00701104 0
-0.00305654 0.00813535 0
-0.00550183 0.00726922 0
-0.00889199 0.00701104 0
-0.00503601 0.00701422 0
-0.0128373 0.00857703 0
-0.00889199 0.00701104 0
0.077303 -0.00281184 0
0.0941892 -0.00501103 0
-0.00889199 0.00701104 0
-0.00503601 0.00701422 0
0.0941892 -0.00501103 0
0.109353 -0.00255801 0
-0.00550183 0.00726922 0
-0.00745177 0.00681992 0
-0.00503601 0.00701422 0
-0.000118493 0.00387961 0
-0.00745177 0.00681992 0
-0.00935016 0.0063699 0
-0.000118493 0.00387961 0
0.00441458 0.00656017 0
-0.00503601 0.00701422 0
-0.000118493 0.00387961 0
0.109353 -0.00255801 0
0.121995 -0.00657387 0
-0.000118493 0.00387961 0
0.00441458 0.00656017 0
0.121995 -0.00657387 0
0.133689 -0.00157876 0
-0.00935016 0.0063699 0
-0.0111044 0.00526018 0
0.00441458 0.00656017 0
0.00975911 0.0011484 0
-0.0111044 0.00526018 0
-0.0126123 0.00416711 0
0.00975911 0.0011484 0
0.0140391 0.00541594 0
0.00441458 0.00656017 0
0.00975911 0.0011484 0
0.133689 -0.00157876 0
0.143471 -0.00813658 0
0.00975911 0.0011484 0
0.0140391 0.00541594 0
0.143471 -0.00813658 0
0.152481 -0.000634147 0
-0.0126123 0.00416711 0
-0.0142569 0.00342861 0
0.0140391 0.00541594 0
0.0175263 0.00021875 0
-0.0142569 0.00342861 0
-0.0163991 0.00281553 0
0.0175263 0.00021875 0
0.0239685 0.0014089 0
0.0140391 0.00541594 0
0.0175263 0.00021875 0
0.152481 -0.000634147 0
0.16149 -0.00824362 0
0.0175263 0.00021875 0
0.0239685 0.0014089 0
0.16149 -0.00824362 0
0.165969 -0.0027767 0
-0.0163991 0.00281553 0
-0.0187614 0.00201716 0
0.0239685 0.0014089 0
0.0200455 0.0108799 0
-0.0187614 0.00201716 0
-0.020974 0.00102839 0
0.0200455 0.0108799 0
0.0199671 -0.00489646 0
0.0239685 0.0014089 0
0.0200455 0.0108799 0
0.165969 -0.0027767 0
0.18101 0.00210233 0
0.0200455 0.0108799 0
0.0199671 -0.00489646 0
0.18101 0.00210233 0
0.192065 -0.00882988 0
0.077303 0.00281184 0
0.512002 0.00521634 0
0.0941892 0.00501103 0
0.49774 0.00574871 0
0.512002 0.00521634 0
0.135011 -0.00088199 0
0.49774 0.00574871 0
0.138265 -0.00108481 0
0.0941892 0.00501103 0
0.49774 0.00574871 0
0.109353 0.00255801 0
0.484608 0.00427979 0
0.49774 0.00574871 0
0.138265 -0.00108481 0
0.484608 0.00427979 0
0.14122 -0.00100954 0
0.109353 0.00255801 0
0.484608 0.00427979 0
0.121995 0.00657387 0
0.472224 0.00522573 0
0.484608 0.00427979 0
0.14122 -0.00100954 0
0.472224 0.00522573 0
0.143908 -0.00115105 0
0.121995 0.00657387 0
0.472224 0.00522573 0
0.133689 0.00157876 0
0.460907 0.00353631 0
0.472224 0.00522573 0
0.143908 -0.00115105 0
0.460907 0.00353631 0
0.146303 -0.00090694 0
0.133689 0.00157876 0
0.460907 0.00353631 0
0.143471 0.00813658 0
0.450089 0.00503037 0
0.460907 0.00353631 0
0.146303 -0.00090694 0
0.450089 0.00503037 0
0.148452 -0.00114173 0
0.143471 0.00813658 0
0.450089 0.00503037 0
0.152481 0.000634147 0
0.440149 0.002887 0
0.450089 0.00503037 0
0.148452 -0.00114173 0
0.440149 0.002887 0
0.150337 -0.000811738 0
0.152481 0.000634147 0
0.440149 0.002887 0
0.16149 0.00824362 0
0.430402 0.00516113 0
0.440149 0.002887 0
0.150337 -0.000811738 0
0.430402 0.00516113 0
0.152033 -0.00113425 0
0.16149 0.00824362 0
0.430402 0.00516113 0
0.165969 0.0027767 0
0.422077 0.00164954 0
0.430402 0.00516113 0
0.152033 -0.00113425 0
0.422077 0.00164954 0
0.153386 -0.000662985 0
0.165969 0.0027767 0
0.422077 0.00164954 0
0.18101 -0.00210233 0
0.412994 0.00601599 0
0.422077 0.00164954 0
0.153386 -0.000662985 0
0.412994 0.00601599 0
0.15481 -0.00121786 0
0.18101 -0.00210233 0
0.412994 0.00601599 0
0.192065 0.00882988 0
0.40342 0.00275966 0
0.412994 0.00601599 0
0.15481 -0.00121786 0
0.40342 0.00275966 0
0.155841 -0.000560952 0
0.135011 0.00088199 0
0.512002 -0.00521634 0
0.138265 0.00108481 0
0.49774 -0.00574871 0
0.512002 -0.00521634 0
0.077303 -0.00281184 0
0.49774 -0.00574871 0
0.0941892 -0.00501103 0
0.138265 0.00108481 0
0.49774 -0.00574871 0
0.14122 0.00100954 0
0.484608 -0.00427979 0
0.49774 -0.00574871 0
0.0941892 -0.00501103 0
0.484608 -0.00427979 0
0.109353 -0.00255801 0
0.14122 0.00100954 0
0.484608 -0.00427979 0
0.143908 0.00115105 0
0.472224 -0.00522573 0
0.484608 -0.00427979 0
0.109353 -0.00255801 0
0.472224 -0.00522573 0
0.121995 -0.00657387 0
0.143908 0.00115105 0
0.472224 -0.00522573 0
0.146303 0.00090694 0
0.460907 -0.00353631 0
0.472224 -0.00522573 0
0.121995 -0.00657387 0
0.460907 -0.00353631 0
0.133689 -0.00157876 0
0.146303 0.00090694 0
0.460907 -0.00353631 0
0.148452 0.00114173 0
0.450089 -0.00503037 0
0.460907 -0.00353631 0
0.133689 -0.00157876 0
0.450089 -0.00503037 0
0.143471 -0.00813658 0
0.148452 0.00114173 0
0.450089 -0.00503037 0
0.150337 0.000811738 0
0.440149 -0.002887 0
0.450089 -0.00503037 0
0.143471 -0.00813658 0
0.440149 -0.002887 0
0.152481 -0.000634147 0
0.150337 0.000811738 0
0.440149 -0.002887 0
0.152033 0.00113425 0
0.430402 -0.00516113 0
0.440149 -0.002887 0
0.152481 -0.000634147 0
0.430402 -0.00516113 0
0.16149 -0.00824362 0
0.152033 0.00113425 0
0.430402 -0.00516113 0
0.153386 0.000662985 0
0.422077 -0.00164954 0
0.430402 -0.00516113 0
0.16149 -0.00824362 0
0.422077 -0.00164954 0
0.165969 -0.0027767 0
0.153386 0.000662985 0
0.422077 -0.00164954 0
0.15481 0.00121786 0
0.412994 -0.00601599 0
0.422077 -0.00164954 0
0.165969 -0.0027767 0
0.412994 -0.00601599 0
0.18101 0.00210233 0
0.15481 0.00121786 0
0.412994 -0.00601599 0
0.155841 0.000560952 0
0.40342 -0.00275966 0
0.412994 -0.00601599 0
0.18101 0.00210233 0
0.40342 -0.00275966 0
0.192065 -0.00882988 0
-0.000380606 -0.00876538 0
-0.0128373 -0.00857703 0
-0.00305654 -0.00813535 0
-0.00889199 -0.00701104 0
-0.0128373 -0.00857703 0
0.077303 0.00281184 0
-0.00889199 -0.00701104 0
0.0941892 0.00501103 0
-0.00305654 -0.00813535 0
-0.00889199 -0.00701104 0
-0.00550183 -0.00726922 0
-0.00503601 -0.00701422 0
-0.00889199 -0.00701104 0
0.0941892 0.00501103 0
-0.00503601 -0.00701422 0
0.109353 0.00255801 0
-0.00550183 -0.00726922 0
-0.00503601 -0.00701422 0
-0.00745177 -0.00681992 0
-0.000118493 -0.00387961 0
-0.00503601 -0.00701422 0
0.109353 0.00255801 0
-0.000118493 -0.00387961 0
0.121995 0.00657387 0
-0.00745177 -0.00681992 0
-0.000118493 -0.00387961 0
-0.00935016 -0.0063699 0
0.00441458 -0.00656017 0
-0.000118493 -0.00387961 0
0.121995 0.00657387 0
0.00441458 -0.00656017 0
0.133689 0.00157876 0
-0.00935016 -0.0063699 0
0.00441458 -0.00656017 0
-0.0111044 -0.00526018 0
0.00975911 -0.0011484 0
0.00441458 -0.00656017 0
0.133689 0.00157876 0
0.00975911 -0.0011484 0
0.143471 0.00813658 0
-0.0111044 -0.00526018 0
0.00975911 -0.0011484 0
-0.0126123 -0.00416711 0
0.0140391 -0.00541594 0
0.00975911 -0.0011484 0
0.143471 0.00813658 0
0.0140391 -0.00541594 0
0.152481 0.000634147 0
-0.0126123 -0.00416711 0
0.0140391 -0.00541594 0
-0.0142569 -0.00342861 0
0.0175263 -0.00021875 0
0.0140391 -0.00541594 0
0.152481 0.000634147 0
0.0175263 -0.00021875 0
0.16149 0.00824362 0
-0.0142569 -0.00342861 0
0.0175263 -0.00021875 0
-0.0163991 -0.00281553 0
0.0239685 -0.0014089 0
0.0175263 -0.00021875 0
0.16149 0.00824362 0
0.0239685 -0.0014089 0
0.165969 0.0027767 0
-0.0163991 -0.00281553 0
0.0239685 -0.0014089 0
-0.0187614 -0.00201716 0
0.0200455 -0.0108799 0
0.0239685 -0.0014089 0
0.165969 0.0027767 0
0.0200455 -0.0108799 0
0.18101 -0.00210233 0
-0.0187614 -0.00201716 0
0.0200455 -0.0108799 0
-0.020974 -0.00102839 0
0.0199671 0.00489646 0
0.0200455 -0.0108799 0
0.18101 -0.00210233 0
0.0199671 0.00489646 0
0.192065 0.00882988 0
0 0 0
-0.000622155 0.00198093 0
0 0 0
-0.00168073 0.00474347 0
-0.000622155 0.00198093 0
-0.00246974 0.00386787 0
-0.00168073 0.00474347 0
-0.00420823 0.00633794 0
0 0 0
-0.00168073 0.00474347 0
0 0 0
0.000397442 0.00633951 0
-0.00168073 0.00474347 0
-0.00420823 0.00633794 0
0.000397442 0.00633951 0
-0.000380606 0.00876538 0
-0.00246974 0.00386787 0
-0.00468254 0.00350541 0
-0.00420823 0.00633794 0
-0.0057442 0.00554333 0
-0.00468254 0.00350541 0
-0.00642376 0.00315004 0
-0.0057442 0.00554333 0
-0.00729596 0.00507773 0
-0.00420823 0.00633794 0
-0.0057442 0.00554333 0
-0.000380606 0.00876538 0
-0.00305654 0.00813535 0
-0.0057442 0.00554333 0
-0.00729596 0.00507773 0
-0.00305654 0.00813535 0
-0.00550183 0.00726922 0
-0.0113053 -0.000927068 0
-0.0103612 -0.00362133 0
-0.0175576 -0.000701369 0
-0.0173398 -0.00522895 0
-0.0103612 -0.00362133 0
-0.00843136 -0.00637989 0
-0.0173398 -0.00522895 0
-0.0149432 -0.00982561 0
-0.0175576 -0.000701369 0
-0.0173398 -0.00522895 0
-0.020974 0.00102839 0
-0.0232247 -0.00471924 0
-0.0173398 -0.00522895 0
-0.0149432 -0.00982561 0
-0.0232247 -0.00471924 0
-0.0238506 -0.0125769 0
-0.020974 0.00102839 0
-0.0232247 -0.00471924 0
0.0199671 -0.00489646 0
0.0253134 -0.0022417 0
-0.0232247 -0.00471924 0
-0.0238506 -0.0125769 0
0.0253134 -0.0022417 0
0.0175595 -0.00517905 0
0.0199671 -0.00489646 0
0.0253134 -0.0022417 0
0.192065 -0.00882988 0
0.191975 -0.00442606 0
0.0253134 -0.0022417 0
0.0175595 -0.00517905 0
0.191975 -0.00442606 0
0.19756 -0.000475945 0
-0.00843136 -0.00637989 0
-0.0055302 -0.00974239 0
-0.0149432 -0.00982561 0
-0.0118463 -0.0132936 0
-0.0055302 -0.00974239 0
-0.00169321 -0.0129816 0
-0.0118463 -0.0132936 0
-0.00852821 -0.0177536 0
-0.0149432 -0.00982561 0
-0.0118463 -0.0132936 0
-0.0238506 -0.0125769 0
-0.0191923 -0.019701 0
-0.0118463 -0.0132936 0
-0.00852821 -0.0177536 0
-0.0191923 -0.019701 0
-0.0126614 -0.0229494 0
-0.00169321 -0.0129816 0
0.00170615 -0.00673287 0
-0.00852821 -0.0177536 0
-0.00274661 -0.0126264 0
0.00170615 -0.00673287 0
0.00329806 -0.000144368 0
-0.00274661 -0.0126264 0
0.00561707 -0.00580751 0
-0.00852821 -0.0177536 0
-0.00274661 -0.0126264 0
-0.0126614 -0.0229494 0
-0.00603077 -0.0220296 0
-0.00274661 -0.0126264 0
0.00561707 -0.00580751 0
-0.00603077 -0.0220296 0
0.00372304 -0.0176556 0
0.00329806 -0.000144368 0
0.00391959 0.0105022 0
0.00561707 -0.00580751 0
0.0137629 0.00599836 0
0.00391959 0.0105022 0
0.00445107 0.0208616 0
0.0137629 0.00599836 0
0.021385 0.0158383 0
0.00561707 -0.00580751 0
0.0137629 0.00599836 0
0.00372304 -0.0176556 0
0.014554 -0.00433736 0
0.0137629 0.00599836 0
0.021385 0.0158383 0
0.014554 -0.00433736 0
0.0241988 0.00599848 0
0 0 0
0 0 0
-0.00232404 0.00267483 0
-0.0124436 0.00908693 0
0 0 0
0 0 0
-0.0124436 0.00908693 0
-0.0254581 0.00624369 0
-0.00232404 0.00267483 0
-0.0124436 0.00908693 0
-0.00305098 0.0106934 0
-0.00725788 0.0176926 0
-0.0124436 0.00908693 0
-0.0254581 0.00624369 0
-0.00725788 0.0176926 0
-0.0103358 0.0163346 0
-0.00305098 0.0106934 0
-0.00725788 0.0176926 0
0.000838644 0.0185949 0
-0.000953105 0.0168859 0
-0.00725788 0.0176926 0
-0.0103358 0.0163346 0
-0.000953105 0.0168859 0
0.00497359 0.0137217 0
0.000838644 0.0185949 0
-0.000953105 0.0168859 0
0.00445107 0.0208616 0
0.00481025 0.0163182 0
-0.000953105 0.0168859 0
0.00497359 0.0137217 0
0.00481025 0.0163182 0
0.00282833 0.0095855 0
0.00445107 0.0208616 0
0.00481025 0.0163182 0
0.021385 0.0158383 0
0.0267865 0.0145961 0
0.00481025 0.0163182 0
0.00282833 0.0095855 0
0.0267865 0.0145961 0
0.026199 0.0142356 0
0.021385 0.0158383 0
0.0267865 0.0145961 0
0.0241988 0.00599848 0
0.0302126 0.0111438 0
0.0267865 0.0145961 0
0.026199 0.0142356 0
0.0302126 0.0111438 0
0.0327866 0.0153797 0
0 0 0
0 0 0
-0.0254581 0.00624369 0
-0.0363908 0.00656421 0
0 0 0
0 0 0
-0.0363908 0.00656421 0
-0.0402977 -0.00200987 0
-0.0254581 0.00624369 0
-0.0363908 0.00656421 0
-0.0103358 0.0163346 0
-0.0157174 0.0155563 0
-0.0363908 0.00656421 0
-0.0402977 -0.00200987 0
-0.0157174 0.0155563 0
-0.0251666 0.00464825 0
-0.0103358 0.0163346 0
-0.0157174 0.0155563 0
0.00497359 0.0137217 0
0.0151506 0.0126723 0
-0.0157174 0.0155563 0
-0.0251666 0.00464825 0
0.0151506 0.0126723 0
0.0152019 0.018534 0
0.00497359 0.0137217 0
0.0151506 0.0126723 0
0.00282833 0.0095855 0
0.00730696 -0.000292115 0
0.0151506 0.0126723 0
0.0152019 0.018534 0
0.00730696 -0.000292115 0
0.0206354 0.0159012 0
0.00282833 0.0095855 0
0.00730696 -0.000292115 0
0.026199 0.0142356 0
0.0174561 5.40227e-05 0
0.00730696 -0.000292115 0
0.0206354 0.0159012 0
0.0174561 5.40227e-05 0
0.0155529 0.00229438 0
0.026199 0.0142356 0
0.0174561 5.40227e-05 0
0.0327866 0.0153797 0
0.031684 0.0104632 0
0.0174561 5.40227e-05 0
0.0155529 0.00229438 0
0.031684 0.0104632 0
0.024167 0.00287295 0
0 0 0
0 0 0
-0.0402977 -0.00200987 0
-0.0310006 -0.00923378 0
0 0 0
0 0 0
-0.0310006 -0.00923378 0
-0.0123058 -0.0131029 0
-0.0402977 -0.00200987 0
-0.0310006 -0.00923378 0
-0.0251666 0.00464825 0
-0.0339645 -0.0167006 0
-0.0310006 -0.00923378 0
-0.0123058 -0.0131029 0
-0.0339645 -0.0167006 0
-0.0277846 -0.0350871 0
-0.0251666 0.00464825 0
-0.0339645 -0.0167006 0
0.0152019 0.018534 0
-0.00437771 0.00231758 0
-0.0339645 -0.0167006 0
-0.0277846 -0.0350871 0
-0.00437771 0.00231758 0
-0.0216996 -0.041553 0
0.0152019 0.018534 0
-0.00437771 0.00231758 0
0.0206354 0.0159012 0
0.0192289 0.0291725 0
-0.00437771 0.00231758 0
-0.0216996 -0.041553 0
0.0192289 0.0291725 0
0.00177105 -0.0284402 0
0.0206354 0.0159012 0
0.0192289 0.0291725 0
0.0155529 0.00229438 0
0.0186916 0.0407025 0
0.0192289 0.0291725 0
0.00177105 -0.0284402 0
0.0186916 0.0407025 0
0.0122753 -0.0130075 0
0.0155529 0.00229438 0
0.0186916 0.0407025 0
0.024167 0.00287295 0
0.02045 0.0410265 0
0.0186916 0.0407025 0
0.0122753 -0.0130075 0
0.02045 0.0410265 0
0.0211121 -0.00702665 0
0 0 0
0 0 0
-0.0123058 -0.0131029 0
6.63477e-05 -0.00197608 0
0 0 0
0 0 0
6.63477e-05 -0.00197608 0
0 0 0
-0.0123058 -0.0131029 0
6.63477e-05 -0.00197608 0
-0.0277846 -0.0350871 0
-0.0094218 -0.01589 0
6.63477e-05 -0.00197608 0
0 0 0
-0.0094218 -0.01589 0
0 0 0
-0.0277846 -0.0350871 0
-0.0094218 -0.01589 0
-0.0216996 -0.041553 0
-0.0113172 -0.042972 0
-0.0094218 -0.01589 0
0 0 0
-0.0113172 -0.042972 0
0 0 0
-0.0216996 -0.041553 0
-0.0113172 -0.042972 0
0.00177105 -0.0284402 0
-0.00300756 -0.0625043 0
-0.0113172 -0.042972 0
0 0 0
-0.00300756 -0.0625043 0
0 0 0
0.00177105 -0.0284402 0
-0.00300756 -0.0625043 0
0.0122753 -0.0130075 0
0.00457421 -0.0638706 0
-0.00300756 -0.0625043 0
0 0 0
0.00457421 -0.0638706 0
0 0 0
0.0122753 -0.0130075 0
0.00457421 -0.0638706 0
0.0211121 -0.00702665 0
0.0109086 -0.0496786 0
0.00457421 -0.0638706 0
0 0 0
0.0109086 -0.0496786 0
0 0 0
0.192065 0.00882988 0
0.40342 0.00275966 0
0.191975 0.00442606 0
0.397014 0.0030339 0
0.40342 0.00275966 0
0.155841 -0.000560952 0
0.397014 0.0030339 0
0.156399 -0.00102212 0
0.191975 0.00442606 0
0.397014 0.0030339 0
0.19756 0.000475945 0
0.391493 0.00209054 0
0.397014 0.0030339 0
0.156399 -0.00102212 0
0.391493 0.00209054 0
0.156879 -0.000257786 0
0.128971 -0.000628016 0
0.00719864 0.000143685 0
0.131996 -0.000647319 0
0.00548373 0.000145822 0
0.00719864 0.000143685 0
-0.109791 -2.28131e-12 0
0.00548373 0.000145822 0
-0.108323 -2.29306e-12 0
0.131996 -0.000647319 0
0.00548373 0.000145822 0
0.135011 -0.00088199 0
0.00384798 9.37286e-05 0
0.00548373 0.000145822 0
-0.108323 -2.29306e-12 0
0.00384798 9.37286e-05 0
-0.106923 -2.30705e-12 0
0.135011 -0.00088199 0
0.00384798 9.37286e-05 0
0.138265 -0.00108481 0
0.00223342 8.35983e-05 0
0.00384798 9.37286e-05 0
-0.106923 -2.30705e-12 0
0.00223342 8.35983e-05 0
-0.105509 -2.3519e-12 0
0.138265 -0.00108481 0
0.00223342 8.35983e-05 0
0.14122 -0.00100954 0
0.000753634 -7.00408e-05 0
0.00223342 8.35983e-05 0
-0.105509 -2.3519e-12 0
0.000753634 -7.00408e-05 0
-0.104109 -2.38434e-12 0
0.14122 -0.00100954 0
0.000753634 -7.00408e-05 0
0.143908 -0.00115105 0
-0.000616365 -1.4363e-05 0
0.000753634 -7.00408e-05 0
-0.104109 -2.38434e-12 0
-0.000616365 -1.4363e-05 0
-0.102751 -2.41852e-12 0
0.143908 -0.00115105 0
-0.000616365 -1.4363e-05 0
0.146303 -0.00090694 0
-0.00188227 -0.000108798 0
-0.000616365 -1.4363e-05 0
-0.102751 -2.41852e-12 0
-0.00188227 -0.000108798 0
-0.101489 -2.45131e-12 0
0.146303 -0.00090694 0
-0.00188227 -0.000108798 0
0.148452 -0.00114173 0
-0.00307464 -5.61331e-05 0
-0.00188227 -0.000108798 0
-0.101489 -2.45131e-12 0
-0.00307464 -5.61331e-05 0
-0.100296 -2.49577e-12 0
0.148452 -0.00114173 0
-0.00307464 -5.61331e-05 0
0.150337 -0.000811738 0
-0.00420411 -0.000182887 0
-0.00307464 -5.61331e-05 0
-0.100296 -2.49577e-12 0