# vtk DataFile Version 3.0
#This file was generated by the deal.II library on 2026/3/26 at 11:24:52
ASCII
DATASET UNSTRUCTURED_GRID

POINTS 8784 double
0 0 0
0.214286 0 0
0 0.25 0
0.214286 0.25 0
0 0.25 0
0.214286 0.25 0
0 0.5 0
0.214286 0.5 0
0.214286 0 0
0.428571 0 0
0.214286 0.25 0
0.428571 0.25 0
0.214286 0.25 0
0.428571 0.25 0
0.214286 0.5 0
0.428571 0.5 0
0 3 0
0 2.75 0
0.214286 3 0
0.214286 2.75 0
0.214286 3 0
0.214286 2.75 0
0.428571 3 0
0.428571 2.75 0
0 2.75 0
0 2.5 0
0.214286 2.75 0
0.214286 2.5 0
0.214286 2.75 0
0.214286 2.5 0
0.428571 2.75 0
0.428571 2.5 0
0.857143 0.75 0
0.964286 0.75 0
0.857143 0.875 0
0.964286 0.875 0
0.964286 0.75 0
1.07143 0.75 0
0.964286 0.875 0
1.07143 0.875 0
0.857143 0.875 0
0.964286 0.875 0
0.857143 1 0
0.964286 1 0
0.964286 0.875 0
1.07143 0.875 0
0.964286 1 0
1.07143 1 0
1.07143 0.75 0
1.17857 0.75 0
1.07143 0.875 0
1.17857 0.875 0
1.17857 0.75 0
1.28571 0.75 0
1.17857 0.875 0
1.28571 0.875 0
1.07143 0.875 0
1.17857 0.875 0
1.07143 1 0
1.17857 1 0
1.17857 0.875 0
1.28571 0.875 0
1.17857 1 0
1.28571 1 0
0.857143 2 0
0.857143 1.875 0
0.964286 2 0
0.964286 1.875 0
0.857143 1.875 0
0.857143 1.75 0
0.964286 1.875 0
0.964286 1.75 0
0.964286 2 0
0.964286 1.875 0
1.07143 2 0
1.07143 1.875 0
0.964286 1.875 0
0.964286 1.75 0
1.07143 1.875 0
1.07143 1.75 0
1.07143 2 0
1.07143 1.875 0
1.17857 2 0
1.17857 1.875 0
1.07143 1.875 0
1.07143 1.75 0
1.17857 1.875 0
1.17857 1.75 0
1.17857 2 0
1.17857 1.875 0
1.28571 2 0
1.28571 1.875 0
1.17857 1.875 0
1.17857 1.75 0
1.28571 1.875 0
1.28571 1.75 0
0.857143 1.25 0
0.857143 1.125 0
0.964286 1.25 0
0.964286 1.125 0
0.857143 1.125 0
0.857143 1 0
0.964286 1.125 0
0.964286 1 0
0.964286 1.25 0
0.964286 1.125 0
1.07143 1.25 0
1.07143 1.125 0
0.964286 1.125 0
0.964286 1 0
1.07143 1.125 0
1.07143 1 0
1.07143 1.25 0
1.07143 1.125 0
1.17857 1.25 0
1.17857 1.125 0
1.07143 1.125 0
1.07143 1 0
1.17857 1.125 0
1.17857 1 0
1.17857 1.25 0
1.17857 1.125 0
1.28571 1.25 0
1.28571 1.125 0
1.17857 1.125 0
1.17857 1 0
1.28571 1.125 0
1.28571 1 0
0.857143 2.25 0
0.857143 2.125 0
0.964286 2.25 0
0.964286 2.125 0
0.857143 2.125 0
0.857143 2 0
0.964286 2.125 0
0.964286 2 0
0.964286 2.25 0
0.964286 2.125 0
1.07143 2.25 0
1.07143 2.125 0
0.964286 2.125 0
0.964286 2 0
1.07143 2.125 0
1.07143 2 0
1.07143 2.25 0
1.07143 2.125 0
1.17857 2.25 0
1.17857 2.125 0
1.07143 2.125 0
1.07143 2 0
1.17857 2.125 0
1.17857 2 0
1.17857 2.25 0
1.17857 2.125 0
1.28571 2.25 0
1.28571 2.125 0
1.17857 2.125 0
1.17857 2 0
1.28571 2.125 0
1.28571 2 0
0 0.5 0
0.107143 0.5 0
0 0.625 0
0.107143 0.625 0
0.107143 0.5 0
0.214286 0.5 0
0.107143 0.625 0
0.214286 0.625 0
0 0.625 0
0.107143 0.625 0
0 0.75 0
0.107143 0.75 0
0.107143 0.625 0
0.214286 0.625 0
0.107143 0.75 0
0.214286 0.75 0
0.214286 0.5 0
0.321429 0.5 0
0.214286 0.625 0
0.321429 0.625 0
0.321429 0.5 0
0.428571 0.5 0
0.321429 0.625 0
0.428571 0.625 0
0.214286 0.625 0
0.321429 0.625 0
0.214286 0.75 0
0.321429 0.75 0
0.321429 0.625 0
0.428571 0.625 0
0.321429 0.75 0
0.428571 0.75 0
2.57143 0 0
2.67857 0 0
2.57143 0.125 0
2.67857 0.125 0
2.67857 0 0
2.78571 0 0
2.67857 0.125 0
2.78571 0.125 0
2.57143 0.125 0
2.67857 0.125 0
2.57143 0.25 0
2.67857 0.25 0
2.67857 0.125 0
2.78571 0.125 0
2.67857 0.25 0
2.78571 0.25 0
2.78571 0 0
2.89286 0 0
2.78571 0.125 0
2.89286 0.125 0
2.89286 0 0
3 0 0
2.89286 0.125 0
3 0.125 0
2.78571 0.125 0
2.89286 0.125 0
2.78571 0.25 0
2.89286 0.25 0
2.89286 0.125 0
3 0.125 0
2.89286 0.25 0
3 0.25 0
0.857143 1.75 0
0.857143 1.625 0
0.964286 1.75 0
0.964286 1.625 0
0.857143 1.625 0
0.857143 1.5 0
0.964286 1.625 0
0.964286 1.5 0
0.964286 1.75 0
0.964286 1.625 0
1.07143 1.75 0
1.07143 1.625 0
0.964286 1.625 0
0.964286 1.5 0
1.07143 1.625 0
1.07143 1.5 0
1.07143 1.75 0
1.07143 1.625 0
1.17857 1.75 0
1.17857 1.625 0
1.07143 1.625 0
1.07143 1.5 0
1.17857 1.625 0
1.17857 1.5 0
1.17857 1.75 0
1.17857 1.625 0
1.28571 1.75 0
1.28571 1.625 0
1.17857 1.625 0
1.17857 1.5 0
1.28571 1.625 0
1.28571 1.5 0
1.28571 1.75 0
1.28571 1.625 0
1.39286 1.75 0
1.39286 1.625 0
1.28571 1.625 0
1.28571 1.5 0
1.39286 1.625 0
1.39286 1.5 0
1.39286 1.75 0
1.39286 1.625 0
1.5 1.75 0
1.5 1.625 0
1.39286 1.625 0
1.39286 1.5 0
1.5 1.625 0
1.5 1.5 0
1.5 1.75 0
1.5 1.625 0
1.60714 1.75 0
1.60714 1.625 0
1.5 1.625 0
1.5 1.5 0
1.60714 1.625 0
1.60714 1.5 0
1.60714 1.75 0
1.60714 1.625 0
1.71429 1.75 0
1.71429 1.625 0
1.60714 1.625 0
1.60714 1.5 0
1.71429 1.625 0
1.71429 1.5 0
1.71429 1.75 0
1.71429 1.625 0
1.82143 1.75 0
1.82143 1.625 0
1.71429 1.625 0
1.71429 1.5 0
1.82143 1.625 0
1.82143 1.5 0
1.82143 1.75 0
1.82143 1.625 0
1.92857 1.75 0
1.92857 1.625 0
1.82143 1.625 0
1.82143 1.5 0
1.92857 1.625 0
1.92857 1.5 0
1.92857 1.75 0
1.92857 1.625 0
2.03571 1.75 0
2.03571 1.625 0
1.92857 1.625 0
1.92857 1.5 0
2.03571 1.625 0
2.03571 1.5 0
2.03571 1.75 0
2.03571 1.625 0
2.14286 1.75 0
2.14286 1.625 0
2.03571 1.625 0
2.03571 1.5 0
2.14286 1.625 0
2.14286 1.5 0
2.14286 1.75 0
2.14286 1.625 0
2.25 1.75 0
2.25 1.625 0
2.14286 1.625 0
2.14286 1.5 0
2.25 1.625 0
2.25 1.5 0
2.25 1.75 0
2.25 1.625 0
2.35714 1.75 0
2.35714 1.625 0
2.25 1.625 0
2.25 1.5 0
2.35714 1.625 0
2.35714 1.5 0
1.07143 1.5 0
1.07143 1.375 0
1.17857 1.5 0
1.17857 1.375 0
1.07143 1.375 0
1.07143 1.25 0
1.17857 1.375 0
1.17857 1.25 0
1.17857 1.5 0
1.17857 1.375 0
1.28571 1.5 0
1.28571 1.375 0
1.17857 1.375 0
1.17857 1.25 0
1.28571 1.375 0
1.28571 1.25 0
1.28571 1.5 0
1.28571 1.375 0
1.39286 1.5 0
1.39286 1.375 0
1.28571 1.375 0
1.28571 1.25 0
1.39286 1.375 0
1.39286 1.25 0
1.39286 1.5 0
1.39286 1.375 0
1.5 1.5 0
1.5 1.375 0
1.39286 1.375 0
1.39286 1.25 0
1.5 1.375 0
1.5 1.25 0
1.5 1.5 0
1.5 1.375 0
1.60714 1.5 0
1.60714 1.375 0
1.5 1.375 0
1.5 1.25 0
1.60714 1.375 0
1.60714 1.25 0
1.60714 1.5 0
1.60714 1.375 0
1.71429 1.5 0
1.71429 1.375 0
1.60714 1.375 0
1.60714 1.25 0
1.71429 1.375 0
1.71429 1.25 0
1.71429 1.5 0
1.71429 1.375 0
1.82143 1.5 0
1.82143 1.375 0
1.71429 1.375 0
1.71429 1.25 0
1.82143 1.375 0
1.82143 1.25 0
1.82143 1.5 0
1.82143 1.375 0
1.92857 1.5 0
1.92857 1.375 0
1.82143 1.375 0
1.82143 1.25 0
1.92857 1.375 0
1.92857 1.25 0
1.92857 1.5 0
1.92857 1.375 0
2.03571 1.5 0
2.03571 1.375 0
1.92857 1.375 0
1.92857 1.25 0
2.03571 1.375 0
2.03571 1.25 0
2.03571 1.5 0
2.03571 1.375 0
2.14286 1.5 0
2.14286 1.375 0
2.03571 1.375 0
2.03571 1.25 0
2.14286 1.375 0
2.14286 1.25 0
2.14286 1.5 0
2.14286 1.375 0
2.25 1.5 0
2.25 1.375 0
2.14286 1.375 0
2.14286 1.25 0
2.25 1.375 0
2.25 1.25 0
2.25 1.5 0
2.25 1.375 0
2.35714 1.5 0
2.35714 1.375 0
2.25 1.375 0
2.25 1.25 0
2.35714 1.375 0
2.35714 1.25 0
2.57143 3 0
2.57143 2.875 0
2.67857 3 0
2.67857 2.875 0
2.57143 2.875 0
2.57143 2.75 0
2.67857 2.875 0
2.67857 2.75 0
2.67857 3 0
2.67857 2.875 0
2.78571 3 0
2.78571 2.875 0
2.67857 2.875 0
2.67857 2.75 0
2.78571 2.875 0
2.78571 2.75 0
2.78571 3 0
2.78571 2.875 0
2.89286 3 0
2.89286 2.875 0
2.78571 2.875 0
2.78571 2.75 0
2.89286 2.875 0
2.89286 2.75 0
2.89286 3 0
2.89286 2.875 0
3 3 0
3 2.875 0
2.89286 2.875 0
2.89286 2.75 0
3 2.875 0
3 2.75 0
0 2.5 0
0 2.375 0
0.107143 2.5 0
0.107143 2.375 0
0 2.375 0
0 2.25 0
0.107143 2.375 0
0.107143 2.25 0
0.107143 2.5 0
0.107143 2.375 0
0.214286 2.5 0
0.214286 2.375 0
0.107143 2.375 0
0.107143 2.25 0
0.214286 2.375 0
0.214286 2.25 0
0.214286 2.5 0
0.214286 2.375 0
0.321429 2.5 0
0.321429 2.375 0
0.214286 2.375 0
0.214286 2.25 0
0.321429 2.375 0
0.321429 2.25 0
0.321429 2.5 0
0.321429 2.375 0
0.428571 2.5 0
0.428571 2.375 0
0.321429 2.375 0
0.321429 2.25 0
0.428571 2.375 0
0.428571 2.25 0
0.428571 0 0
0.535714 0 0
0.428571 0.125 0
0.535714 0.125 0
0.535714 0 0
0.642857 0 0
0.535714 0.125 0
0.642857 0.125 0
0.428571 0.125 0
0.535714 0.125 0
0.428571 0.25 0
0.535714 0.25 0
0.535714 0.125 0
0.642857 0.125 0
0.535714 0.25 0
0.642857 0.25 0
0.428571 0.25 0
0.535714 0.25 0
0.428571 0.375 0
0.535714 0.375 0
0.535714 0.25 0
0.642857 0.25 0
0.535714 0.375 0
0.642857 0.375 0
0.428571 0.375 0
0.535714 0.375 0
0.428571 0.5 0
0.535714 0.5 0
0.535714 0.375 0
0.642857 0.375 0
0.535714 0.5 0
0.642857 0.5 0
0.428571 0.5 0
0.535714 0.5 0
0.428571 0.625 0
0.535714 0.625 0
0.535714 0.5 0
0.642857 0.5 0
0.535714 0.625 0
0.642857 0.625 0
0.428571 0.625 0
0.535714 0.625 0
0.428571 0.75 0
0.535714 0.75 0
0.535714 0.625 0
0.642857 0.625 0
0.535714 0.75 0
0.642857 0.75 0
0.642857 0 0
0.75 0 0
0.642857 0.125 0
0.75 0.125 0
0.75 0 0
0.857143 0 0
0.75 0.125 0
0.857143 0.125 0
0.642857 0.125 0
0.75 0.125 0
0.642857 0.25 0
0.75 0.25 0
0.75 0.125 0
0.857143 0.125 0
0.75 0.25 0
0.857143 0.25 0
0.642857 0.25 0
0.75 0.25 0
0.642857 0.375 0
0.75 0.375 0
0.75 0.25 0
0.857143 0.25 0
0.75 0.375 0
0.857143 0.375 0
0.642857 0.375 0
0.75 0.375 0
0.642857 0.5 0
0.75 0.5 0
0.75 0.375 0
0.857143 0.375 0
0.75 0.5 0
0.857143 0.5 0
0.642857 0.5 0
0.75 0.5 0
0.642857 0.625 0
0.75 0.625 0
0.75 0.5 0
0.857143 0.5 0
0.75 0.625 0
0.857143 0.625 0
0.642857 0.625 0
0.75 0.625 0
0.642857 0.75 0
0.75 0.75 0
0.75 0.625 0
0.857143 0.625 0
0.75 0.75 0
0.857143 0.75 0
0.857143 0 0
0.964286 0 0
0.857143 0.125 0
0.964286 0.125 0
0.964286 0 0
1.07143 0 0
0.964286 0.125 0
1.07143 0.125 0
0.857143 0.125 0
0.964286 0.125 0
0.857143 0.25 0
0.964286 0.25 0
0.964286 0.125 0
1.07143 0.125 0
0.964286 0.25 0
1.07143 0.25 0
0.857143 0.25 0
0.964286 0.25 0
0.857143 0.375 0
0.964286 0.375 0
0.964286 0.25 0
1.07143 0.25 0
0.964286 0.375 0
1.07143 0.375 0
0.857143 0.375 0
0.964286 0.375 0
0.857143 0.5 0
0.964286 0.5 0
0.964286 0.375 0
1.07143 0.375 0
0.964286 0.5 0
1.07143 0.5 0
0.857143 0.5 0
0.964286 0.5 0
0.857143 0.625 0
0.964286 0.625 0
0.964286 0.5 0
1.07143 0.5 0
0.964286 0.625 0
1.07143 0.625 0
0.857143 0.625 0
0.964286 0.625 0
0.857143 0.75 0
0.964286 0.75 0
0.964286 0.625 0
1.07143 0.625 0
0.964286 0.75 0
1.07143 0.75 0
1.07143 0 0
1.17857 0 0
1.07143 0.125 0
1.17857 0.125 0
1.17857 0 0
1.28571 0 0
1.17857 0.125 0
1.28571 0.125 0
1.07143 0.125 0
1.17857 0.125 0
1.07143 0.25 0
1.17857 0.25 0
1.17857 0.125 0
1.28571 0.125 0
1.17857 0.25 0
1.28571 0.25 0
1.07143 0.25 0
1.17857 0.25 0
1.07143 0.375 0
1.17857 0.375 0
1.17857 0.25 0
1.28571 0.25 0
[...]
POINT_DATA 8784
VECTORS velocity double
0 0 0
0 0 0
0 0 0
0.0473593 -0.0469891 0
0 0 0
0.0473593 -0.0469891 0
0 0 0
-0.0877003 0.00385371 0
0 0 0
0 0 0
0.0473593 -0.0469891 0
0.0435545 0.0753554 0
0.0473593 -0.0469891 0
0.0435545 0.0753554 0
-0.0877003 0.00385371 0
-0.15736 0.100113 0
0 0 0
0 0 0
0 0 0
0.20839 0.269939 0
0 0 0
0.20839 0.269939 0
0 0 0
0.482634 0.0320467 0
0 0 0
0 0 0
0.20839 0.269939 0
-0.134582 0.357295 0
0.20839 0.269939 0
-0.134582 0.357295 0
0.482634 0.0320467 0
-0.161972 0.197965 0
-0.0297709 0.0943525 0
0.29739 -0.0457351 0
0.391957 -0.187969 0
0.333392 -0.0894494 0
0.29739 -0.0457351 0
0.269269 -0.279128 0
0.333392 -0.0894494 0
-0.0283994 0.218531 0
0.391957 -0.187969 0
0.333392 -0.0894494 0
-0.186197 0.104884 0
-0.316733 -0.154011 0
0.333392 -0.0894494 0
-0.0283994 0.218531 0
-0.316733 -0.154011 0
0.0541411 0.293229 0
0.269269 -0.279128 0
0.243932 -0.234784 0
-0.0283994 0.218531 0
-0.356068 -0.365679 0
0.243932 -0.234784 0
0.189757 0.178315 0
-0.356068 -0.365679 0
-0.0741339 0.0397413 0
-0.0283994 0.218531 0
-0.356068 -0.365679 0
0.0541411 0.293229 0
0.205383 -0.213029 0
-0.356068 -0.365679 0
-0.0741339 0.0397413 0
0.205383 -0.213029 0
-0.14943 0.010502 0
0.250117 -0.314902 0
0.03639 -0.0442718 0
0.319561 0.421047 0
-0.13129 -0.00545665 0
0.03639 -0.0442718 0
-0.082397 -0.0907469 0
-0.13129 -0.00545665 0
-0.00110247 -0.080055 0
0.319561 0.421047 0
-0.13129 -0.00545665 0
0.635586 -0.574576 0
-0.24723 0.0338388 0
-0.13129 -0.00545665 0
-0.00110247 -0.080055 0
-0.24723 0.0338388 0
-0.0372655 -0.000182808 0
0.635586 -0.574576 0
-0.24723 0.0338388 0
0.661009 0.549866 0
-0.117354 0.0697909 0
-0.24723 0.0338388 0
-0.0372655 -0.000182808 0
-0.117354 0.0697909 0
-0.202003 0.0654061 0
0.661009 0.549866 0
-0.117354 0.0697909 0
0.446775 -0.159228 0
-0.0702369 0.0846301 0
-0.117354 0.0697909 0
-0.202003 0.0654061 0
-0.0702369 0.0846301 0
-0.374392 -0.0475691 0
0.144085 -0.0326306 0
0.219195 0.175725 0
0.183666 -0.00404402 0
0.269498 -0.147032 0
0.219195 0.175725 0
-0.186197 0.104884 0
0.269498 -0.147032 0
-0.316733 -0.154011 0
0.183666 -0.00404402 0
0.269498 -0.147032 0
0.203606 0.0727317 0
0.100518 0.0444712 0
0.269498 -0.147032 0
-0.316733 -0.154011 0
0.100518 0.0444712 0
0.0541411 0.293229 0
0.203606 0.0727317 0
0.100518 0.0444712 0
0.278449 0.000460204 0
-0.0021995 -0.0456666 0
0.100518 0.0444712 0
0.0541411 0.293229 0
-0.0021995 -0.0456666 0
0.205383 -0.213029 0
0.278449 0.000460204 0
-0.0021995 -0.0456666 0
0.286087 0.00722296 0
0.103467 0.154375 0
-0.0021995 -0.0456666 0
0.205383 -0.213029 0
0.103467 0.154375 0
-0.14943 0.010502 0
0.68474 -0.220969 0
-0.397389 -0.108212 0
1.05479 -0.119965 0
-0.415501 0.138808 0
-0.397389 -0.108212 0
0.250117 -0.314902 0
-0.415501 0.138808 0
0.319561 0.421047 0
1.05479 -0.119965 0
-0.415501 0.138808 0
0.885139 0.555889 0
-0.717376 -0.267512 0
-0.415501 0.138808 0
0.319561 0.421047 0
-0.717376 -0.267512 0
0.635586 -0.574576 0
0.885139 0.555889 0
-0.717376 -0.267512 0
0.357168 -0.0881732 0
-0.728913 0.136996 0
-0.717376 -0.267512 0
0.635586 -0.574576 0
-0.728913 0.136996 0
0.661009 0.549866 0
0.357168 -0.0881732 0
-0.728913 0.136996 0
-0.256875 -0.340191 0
0.0587573 -0.319814 0
-0.728913 0.136996 0
0.661009 0.549866 0
0.0587573 -0.319814 0
0.446775 -0.159228 0
0 0 0
-0.0182439 -0.00654005 0
0 0 0
0.165829 -0.164399 0
-0.0182439 -0.00654005 0
-0.0877003 0.00385371 0
0.165829 -0.164399 0
0.129464 0.27183 0
0 0 0
0.165829 -0.164399 0
0 0 0
0.037435 -0.382412 0
0.165829 -0.164399 0
0.129464 0.27183 0
0.037435 -0.382412 0
0.0311443 0.472333 0
-0.0877003 0.00385371 0
-0.155111 0.0360738 0
0.129464 0.27183 0
0.100133 -0.0944136 0
-0.155111 0.0360738 0
-0.15736 0.100113 0
0.100133 -0.0944136 0
0.256366 0.0494395 0
0.129464 0.27183 0
0.100133 -0.0944136 0
0.0311443 0.472333 0
0.0777645 -0.314138 0
0.100133 -0.0944136 0
0.256366 0.0494395 0
0.0777645 -0.314138 0
-0.11736 0.270862 0
0 0 0
0 0 0
0.056366 -0.0557021 0
0.0674929 0.0378673 0
0 0 0
0 0 0
0.0674929 0.0378673 0
-0.0428533 0.0600514 0
0.056366 -0.0557021 0
0.0674929 0.0378673 0
-0.0452514 -0.0944968 0
0.115508 -0.110509 0
0.0674929 0.0378673 0
-0.0428533 0.0600514 0
0.115508 -0.110509 0
0.0291906 0.471119 0
0 0 0
0 0 0
-0.0428533 0.0600514 0
-0.0631213 -0.0712086 0
0 0 0
0 0 0
-0.0631213 -0.0712086 0
0 0 0
-0.0428533 0.0600514 0
-0.0631213 -0.0712086 0
0.0291906 0.471119 0
-0.124005 -0.264785 0
-0.0631213 -0.0712086 0
0 0 0
-0.124005 -0.264785 0
0 0 0
-0.082397 -0.0907469 0
0.449779 0.0718143 0
-0.00110247 -0.080055 0
0.560992 -0.0275181 0
0.449779 0.0718143 0
-0.411357 0.136605 0
0.560992 -0.0275181 0
-0.274905 0.133576 0
-0.00110247 -0.080055 0
0.560992 -0.0275181 0
-0.0372655 -0.000182808 0
0.554262 -0.0351155 0
0.560992 -0.0275181 0
-0.274905 0.133576 0
0.554262 -0.0351155 0
-0.166995 -0.0307315 0
-0.0372655 -0.000182808 0
0.554262 -0.0351155 0
-0.202003 0.0654061 0
0.54706 -0.0960385 0
0.554262 -0.0351155 0
-0.166995 -0.0307315 0
0.54706 -0.0960385 0
-0.230815 -0.232283 0
-0.202003 0.0654061 0
0.54706 -0.0960385 0
-0.374392 -0.0475691 0
0.612779 0.0325757 0
0.54706 -0.0960385 0
-0.230815 -0.232283 0
0.612779 0.0325757 0
-0.313065 0.0839332 0
-0.374392 -0.0475691 0
0.612779 0.0325757 0
-0.26903 0.0897741 0
0.553042 0.0814036 0
0.612779 0.0325757 0
-0.313065 0.0839332 0
0.553042 0.0814036 0
-0.282619 -0.0815503 0
-0.26903 0.0897741 0
0.553042 0.0814036 0
-0.122465 0.141137 0
0.483369 0.27557 0
0.553042 0.0814036 0
-0.282619 -0.0815503 0
0.483369 0.27557 0
-0.410651 0.155091 0
-0.122465 0.141137 0
0.483369 0.27557 0
-0.00967882 -0.113123 0
0.494726 -0.125258 0
0.483369 0.27557 0
-0.410651 0.155091 0
0.494726 -0.125258 0
-0.275106 0.091721 0
-0.00967882 -0.113123 0
0.494726 -0.125258 0
0.117351 -0.0405687 0
0.326469 -0.0367277 0
0.494726 -0.125258 0
-0.275106 0.091721 0
0.326469 -0.0367277 0
-0.26387 -0.407947 0
0.117351 -0.0405687 0
0.326469 -0.0367277 0
-0.179233 0.158452 0
0.488066 -0.0637786 0
0.326469 -0.0367277 0
-0.26387 -0.407947 0
0.488066 -0.0637786 0
-0.334649 0.406461 0
-0.179233 0.158452 0
0.488066 -0.0637786 0
-0.115478 -0.180781 0
0.50322 0.154232 0
0.488066 -0.0637786 0
-0.334649 0.406461 0
0.50322 0.154232 0
-0.257541 -0.205185 0
-0.115478 -0.180781 0
0.50322 0.154232 0
0.110621 0.241124 0
0.438504 0.0735917 0
0.50322 0.154232 0
-0.257541 -0.205185 0
0.438504 0.0735917 0
-0.379009 0.291125 0
0.110621 0.241124 0
0.438504 0.0735917 0
0.41931 0.134521 0
-0.151207 -0.0384284 0
0.438504 0.0735917 0
-0.379009 0.291125 0
-0.151207 -0.0384284 0
0.0558205 -0.445772 0
0.41931 0.134521 0
-0.151207 -0.0384284 0
0.767312 0.129101 0
-0.69937 -0.0110018 0
-0.151207 -0.0384284 0
0.0558205 -0.445772 0
-0.69937 -0.0110018 0
0.220691 0.0807121 0
0.767312 0.129101 0
-0.69937 -0.0110018 0
0.457598 -0.0145681 0
-0.6832 -0.239056 0
-0.69937 -0.0110018 0
0.220691 0.0807121 0
-0.6832 -0.239056 0
0.468799 -0.011557 0
-0.166995 -0.0307315 0
0.275169 -0.0869801 0
-0.230815 -0.232283 0
0.398343 -0.0418157 0
0.275169 -0.0869801 0
0.203606 0.0727317 0
0.398343 -0.0418157 0
0.278449 0.000460204 0
-0.230815 -0.232283 0
0.398343 -0.0418157 0
-0.313065 0.0839332 0
0.48641 -0.0329787 0
0.398343 -0.0418157 0
0.278449 0.000460204 0
0.48641 -0.0329787 0
0.286087 0.00722296 0
-0.313065 0.0839332 0
0.48641 -0.0329787 0
-0.282619 -0.0815503 0
0.405802 0.101657 0
0.48641 -0.0329787 0
0.286087 0.00722296 0
0.405802 0.101657 0
0.348652 -0.0386963 0
-0.282619 -0.0815503 0
0.405802 0.101657 0
-0.410651 0.155091 0
0.411248 -0.0769183 0
0.405802 0.101657 0
0.348652 -0.0386963 0
0.411248 -0.0769183 0
0.323542 -0.00383826 0
-0.410651 0.155091 0
0.411248 -0.0769183 0
-0.275106 0.091721 0
0.206941 0.329691 0
0.411248 -0.0769183 0
0.323542 -0.00383826 0
0.206941 0.329691 0
0.307474 -0.0771387 0
-0.275106 0.091721 0
0.206941 0.329691 0
-0.26387 -0.407947 0
0.424848 -0.347036 0
0.206941 0.329691 0
0.307474 -0.0771387 0
0.424848 -0.347036 0
0.197279 0.0924477 0
-0.26387 -0.407947 0
0.424848 -0.347036 0
-0.334649 0.406461 0
0.586597 0.446487 0
0.424848 -0.347036 0
0.197279 0.0924477 0
0.586597 0.446487 0
0.185718 0.0526099 0
-0.334649 0.406461 0
0.586597 0.446487 0
-0.257541 -0.205185 0
0.56611 -0.161186 0
0.586597 0.446487 0
0.185718 0.0526099 0
0.56611 -0.161186 0
0.133131 0.15113 0
-0.257541 -0.205185 0
0.56611 -0.161186 0
-0.379009 0.291125 0
0.701386 0.268378 0
0.56611 -0.161186 0
0.133131 0.15113 0
0.701386 0.268378 0
0.00671335 -0.201743 0
-0.379009 0.291125 0
0.701386 0.268378 0
0.0558205 -0.445772 0
0.569078 -0.0916718 0
0.701386 0.268378 0
0.00671335 -0.201743 0
0.569078 -0.0916718 0
-0.0968858 0.133942 0
0.0558205 -0.445772 0
0.569078 -0.0916718 0
0.220691 0.0807121 0
0.728177 0.144453 0
0.569078 -0.0916718 0
-0.0968858 0.133942 0
0.728177 0.144453 0
0.0153575 0.0924698 0
0.220691 0.0807121 0
0.728177 0.144453 0
0.468799 -0.011557 0
0.637394 0.0771261 0
0.728177 0.144453 0
0.0153575 0.0924698 0
0.637394 0.0771261 0
-0.0269565 -0.0609176 0
0 0 0
-0.328032 0.0315716 0
0 0 0
-0.152934 0.258941 0
-0.328032 0.0315716 0
0.376783 0.125353 0
-0.152934 0.258941 0
0.331447 0.420745 0
0 0 0
-0.152934 0.258941 0
0 0 0
0.0589178 -0.0468122 0
-0.152934 0.258941 0
0.331447 0.420745 0
0.0589178 -0.0468122 0
0.166441 -0.290471 0
0 0 0
0.0589178 -0.0468122 0
0 0 0
0.0519259 0.0261537 0
0.0589178 -0.0468122 0
0.166441 -0.290471 0
0.0519259 0.0261537 0
0.087785 0.0121045 0
0 0 0
0.0519259 0.0261537 0
0 0 0
0 0 0
0.0519259 0.0261537 0
0.087785 0.0121045 0
0 0 0
0 0 0
0 0 0
0 0 0
-0.0394656 0.187423 0
-0.262309 -0.159055 0
0 0 0
0 0 0
-0.262309 -0.159055 0
0.0405755 -0.421334 0
-0.0394656 0.187423 0
-0.262309 -0.159055 0
-0.134582 0.357295 0
-0.388079 0.380196 0
-0.262309 -0.159055 0
0.0405755 -0.421334 0
-0.388079 0.380196 0
-0.107017 0.34093 0
-0.134582 0.357295 0
-0.388079 0.380196 0
-0.196385 0.301383 0
-0.360732 0.254574 0
-0.388079 0.380196 0
-0.107017 0.34093 0
-0.360732 0.254574 0
-0.146377 0.241618 0
-0.196385 0.301383 0
-0.360732 0.254574 0
-0.161972 0.197965 0
-0.492472 0.156902 0
-0.360732 0.254574 0
-0.146377 0.241618 0
-0.492472 0.156902 0
-0.216864 0.020427 0
0 0 0
0 0 0
0.0102062 0.0212596 0
0.0364355 -0.0459934 0
0 0 0
0 0 0
0.0364355 -0.0459934 0
-0.00661258 0.107261 0
0.0102062 0.0212596 0
0.0364355 -0.0459934 0
0.0435545 0.0753554 0
-0.0881999 0.00591632 0
0.0364355 -0.0459934 0
-0.00661258 0.107261 0
-0.0881999 0.00591632 0
-0.176546 0.202664 0
0.0435545 0.0753554 0
-0.0881999 0.00591632 0
-0.0414884 0.113294 0
-0.113807 0.191368 0
-0.0881999 0.00591632 0
-0.176546 0.202664 0
-0.113807 0.191368 0
0.00225494 -0.0183504 0
-0.0414884 0.113294 0
-0.113807 0.191368 0
-0.15736 0.100113 0
-0.0645493 0.208488 0
-0.113807 0.191368 0
0.00225494 -0.0183504 0
-0.0645493 0.208488 0
0.0569177 -0.274298 0
-0.15736 0.100113 0
-0.0645493 0.208488 0
0.256366 0.0494395 0
0.138706 0.283713 0
-0.0645493 0.208488 0
0.0569177 -0.274298 0
0.138706 0.283713 0
-0.0421584 -0.28777 0
0.256366 0.0494395 0
0.138706 0.283713 0
-0.11736 0.270862 0
-0.0558096 0.118871 0
0.138706 0.283713 0
-0.0421584 -0.28777 0
-0.0558096 0.118871 0
0.0631251 -0.0373876 0
0 0 0
0 0 0
-0.00661258 0.107261 0
-0.100879 0.0201625 0
0 0 0
0 0 0
-0.100879 0.0201625 0
-0.0621422 -0.0460738 0
-0.00661258 0.107261 0
-0.100879 0.0201625 0
-0.176546 0.202664 0
-0.0563573 -0.101385 0
-0.100879 0.0201625 0
-0.0621422 -0.0460738 0
-0.0563573 -0.101385 0
-0.0917519 0.0622512 0
-0.176546 0.202664 0
-0.0563573 -0.101385 0
0.00225494 -0.0183504 0
0.0431896 -0.0756402 0
-0.0563573 -0.101385 0
-0.0917519 0.0622512 0
0.0431896 -0.0756402 0
-0.300564 0.459687 0
0.00225494 -0.0183504 0
0.0431896 -0.0756402 0
0.0569177 -0.274298 0
0.00445342 0.221948 0
0.0431896 -0.0756402 0
-0.300564 0.459687 0
0.00445342 0.221948 0
-0.0631071 0.674143 0
0.0569177 -0.274298 0
0.00445342 0.221948 0
-0.0421584 -0.28777 0
0.0523815 0.184723 0
0.00445342 0.221948 0
-0.0631071 0.674143 0
0.0523815 0.184723 0
0.308994 0.531056 0
-0.0421584 -0.28777 0
0.0523815 0.184723 0
0.0631251 -0.0373876 0
-0.203531 0.111716 0
0.0523815 0.184723 0
0.308994 0.531056 0
-0.203531 0.111716 0
-0.0297709 0.0943525 0
0 0 0
0 0 0
-0.0621422 -0.0460738 0
0.00217422 -0.0296086 0
0 0 0
0 0 0
0.00217422 -0.0296086 0
0.00651896 0.0322416 0
-0.0621422 -0.0460738 0
0.00217422 -0.0296086 0
-0.0917519 0.0622512 0
-0.335184 0.0398848 0
0.00217422 -0.0296086 0
0.00651896 0.0322416 0
-0.335184 0.0398848 0
-0.305815 -0.0689538 0
-0.0917519 0.0622512 0
-0.335184 0.0398848 0
-0.300564 0.459687 0
-0.492289 0.155345 0
-0.335184 0.0398848 0
-0.305815 -0.0689538 0
-0.492289 0.155345 0
-0.401905 -0.319686 0
-0.300564 0.459687 0
-0.492289 0.155345 0
-0.0631071 0.674143 0
-0.0692831 0.195578 0
-0.492289 0.155345 0
-0.401905 -0.319686 0
-0.0692831 0.195578 0
-0.0438948 -0.526728 0
-0.0631071 0.674143 0
-0.0692831 0.195578 0
0.308994 0.531056 0
0.501029 0.100035 0
-0.0692831 0.195578 0
-0.0438948 -0.526728 0
0.501029 0.100035 0
0.531157 -0.487442 0
0.308994 0.531056 0
0.501029 0.100035 0
-0.0297709 0.0943525 0
0.29739 -0.0457351 0
0.501029 0.100035 0
0.531157 -0.487442 0
0.29739 -0.0457351 0
0.269269 -0.279128 0
0 0 0
0 0 0
0.00651896 0.0322416 0
-0.00659504 -0.0289283 0
0 0 0
0 0 0
-0.00659504 -0.0289283 0
-0.0753117 0.102341 0
0.00651896 0.0322416 0
-0.00659504 -0.0289283 0
-0.305815 -0.0689538 0
-0.0720471 -0.188484 0
-0.00659504 -0.0289283 0
-0.0753117 0.102341 0
-0.0720471 -0.188484 0
0.326998 -0.165362 0
-0.305815 -0.0689538 0
-0.0720471 -0.188484 0
-0.401905 -0.319686 0
-0.12547 -0.523261 0
-0.0720471 -0.188484 0
0.326998 -0.165362 0
-0.12547 -0.523261 0
-0.134591 -0.298053 0
-0.401905 -0.319686 0
-0.12547 -0.523261 0
-0.0438948 -0.526728 0
-0.0341921 -0.64643 0
-0.12547 -0.523261 0
-0.134591 -0.298053 0
-0.0341921 -0.64643 0
-0.116493 -0.0656697 0
-0.0438948 -0.526728 0
-0.0341921 -0.64643 0
0.531157 -0.487442 0
0.256504 -0.368785 0
-0.0341921 -0.64643 0
-0.116493 -0.0656697 0
0.256504 -0.368785 0
0.0521808 -0.0225375 0
0.531157 -0.487442 0
0.256504 -0.368785 0
0.269269 -0.279128 0
0.243932 -0.234784 0
0.256504 -0.368785 0
0.0521808 -0.0225375 0
0.243932 -0.234784 0
0.189757 0.178315 0
0 0 0
0 0 0
-0.0753117 0.102341 0
-0.115391 0.0204235 0
0 0 0
0 0 0
-0.115391 0.0204235 0
0.242704 -0.501139 0
-0.0753117 0.102341 0
-0.115391 0.0204235 0
0.326998 -0.165362 0
0.405961 0.278051 0
-0.115391 0.0204235 0
0.242704 -0.501139 0
0.405961 0.278051 0
-0.298408 -0.375512 0
0.326998 -0.165362 0
0.405961 0.278051 0
-0.134591 -0.298053 0
-0.164811 0.383413 0
0.405961 0.278051 0
-0.298408 -0.375512 0
-0.164811 0.383413 0
-0.10356 0.286816 0
-0.134591 -0.298053 0
-0.164811 0.383413 0
-0.116493 -0.0656697 0
0.0144837 0.0101301 0
-0.164811 0.383413 0
-0.10356 0.286816 0
0.0144837 0.0101301 0
0.366688 0.251507 0
0 0 0
0 0 0
0.242704 -0.501139 0
0.496713 0.248376 0
0 0 0
0 0 0
0.496713 0.248376 0
0.174718 0.13513 0
0.242704 -0.501139 0
0.496713 0.248376 0
-0.298408 -0.375512 0
-0.441794 0.0666079 0
0.496713 0.248376 0
0.174718 0.13513 0
-0.441794 0.0666079 0
-0.157385 0.262377 0
-0.298408 -0.375512 0
-0.441794 0.0666079 0
-0.10356 0.286816 0
-0.0942392 -0.42129 0
-0.441794 0.0666079 0
-0.157385 0.262377 0
-0.0942392 -0.42129 0
0.0705031 0.279082 0
-0.10356 0.286816 0
-0.0942392 -0.42129 0
0.366688 0.251507 0
0.219012 -0.244326 0
-0.0942392 -0.42129 0
0.0705031 0.279082 0
0.219012 -0.244326 0
-0.031439 0.261582 0
0 0 0
0 0 0
0.174718 0.13513 0
0.123653 -0.0373807 0
0 0 0
0 0 0
0.123653 -0.0373807 0
0.0487095 0.120111 0
0.174718 0.13513 0
0.123653 -0.0373807 0
-0.157385 0.262377 0
-0.181077 -0.066825 0
0.123653 -0.0373807 0
0.0487095 0.120111 0
-0.181077 -0.066825 0
-0.122734 0.165779 0
-0.157385 0.262377 0
-0.181077 -0.066825 0
0.0705031 0.279082 0
-0.0873463 0.125609 0
-0.181077 -0.066825 0
-0.122734 0.165779 0
-0.0873463 0.125609 0
-0.345028 0.180379 0
0.0705031 0.279082 0
-0.0873463 0.125609 0
-0.031439 0.261582 0
-0.0324017 0.273722 0
-0.0873463 0.125609 0
-0.345028 0.180379 0
-0.0324017 0.273722 0
0.0420238 0.331113 0
0 0 0
0 0 0
0.0487095 0.120111 0
0.0262816 -0.0860643 0
0 0 0
0 0 0
0.0262816 -0.0860643 0
0.490277 -0.458863 0
0.0487095 0.120111 0
0.0262816 -0.0860643 0
-0.122734 0.165779 0
-0.0553502 -0.164216 0
0.0262816 -0.0860643 0
0.490277 -0.458863 0
-0.0553502 -0.164216 0
-0.290479 -0.636635 0
-0.122734 0.165779 0
-0.0553502 -0.164216 0
-0.345028 0.180379 0
-0.436424 -0.194559 0
-0.0553502 -0.164216 0
-0.290479 -0.636635 0
-0.436424 -0.194559 0
-0.437144 -0.366059 0
-0.345028 0.180379 0
-0.436424 -0.194559 0
0.0420238 0.331113 0
0.166434 -0.421535 0
-0.436424 -0.194559 0
-0.437144 -0.366059 0
0.166434 -0.421535 0
0.29104 -0.170749 0
0 0 0
0.257499 -0.00613688 0
0 0 0
0.283749 0.0503488 0
0.257499 -0.00613688 0
0.482634 0.0320467 0
0.283749 0.0503488 0
0.342922 -0.114542 0
0 0 0
0.283749 0.0503488 0
0 0 0
0.166971 -0.212007 0
0.283749 0.0503488 0
0.342922 -0.114542 0
0.166971 -0.212007 0
0.238276 -0.307387 0
0 0 0
0.166971 -0.212007 0
0 0 0
0.213298 0.267421 0
0.166971 -0.212007 0
0.238276 -0.307387 0
0.213298 0.267421 0
0.0508317 0.125737 0
0 0 0
0.213298 0.267421 0
0 0 0
0.467959 0.0857402 0
0.213298 0.267421 0
0.0508317 0.125737 0
0.467959 0.0857402 0
-0.621334 -0.17224 0
0 0 0
0.467959 0.0857402 0
0 0 0
0.469744 -0.0683692 0
0.467959 0.0857402 0
-0.621334 -0.17224 0
0.469744 -0.0683692 0
-0.823711 -0.0552427 0
0 0 0
0.469744 -0.0683692 0
0 0 0
0.497188 0.0484959 0
0.469744 -0.0683692 0
-0.823711 -0.0552427 0
0.497188 0.0484959 0
-0.611435 0.274738 0
0 0 0
0.497188 0.0484959 0
0 0 0
0.366757 -0.214269 0
0.497188 0.0484959 0
-0.611435 0.274738 0
0.366757 -0.214269 0
-0.0649557 0.0121685 0
0 0 0
0.366757 -0.214269 0
0 0 0
0.0743836 -0.100608 0
0.366757 -0.214269 0
-0.0649557 0.0121685 0
0.0743836 -0.100608 0
0.334563 -0.163148 0
0 0 0
0.0743836 -0.100608 0
0 0 0
-0.0520932 -0.0463232 0
0.0743836 -0.100608 0
0.334563 -0.163148 0
-0.0520932 -0.0463232 0
0.394557 -0.0617331 0
0 0 0
-0.0520932 -0.0463232 0
0 0 0
0.231178 0.362988 0
-0.0520932 -0.0463232 0
0.394557 -0.0617331 0
0.231178 0.362988 0
0.0221354 0.35615 0
0 0 0
0.231178 0.362988 0
0 0 0
0.463228 -0.103478 0
0.231178 0.362988 0
0.0221354 0.35615 0
0.463228 -0.103478 0
-0.15996 0.0246653 0
0 0 0
0.463228 -0.103478 0
0 0 0
0.0411909 -0.412489 0
0.463228 -0.103478 0
-0.15996 0.0246653 0
0.0411909 -0.412489 0
0.168085 -0.660945 0
0 0 0
0.0411909 -0.412489 0
0 0 0
0.443296 0.92115 0
0.0411909 -0.412489 0
0.168085 -0.660945 0
0.443296 0.92115 0
-0.554926 0.787234 0
0 0 0
0.443296 0.92115 0
0 0 0
0.716674 -0.631695 0
0.443296 0.92115 0
-0.554926 0.787234 0
0.716674 -0.631695 0
-0.798244 -0.518822 0
0 0 0
0.716674 -0.631695 0
0 0 0
0.10675 -0.0801797 0
0.716674 -0.631695 0
-0.798244 -0.518822 0
0.10675 -0.0801797 0
-0.0387461 0.0614725 0
0 0 0
0.10675 -0.0801797 0
0 0 0
0.203087 0.161885 0
0.10675 -0.0801797 0
-0.0387461 0.0614725 0
0.203087 0.161885 0
0.12546 0.34827 0
0.482634 0.0320467 0
0.157538 0.113095 0
0.342922 -0.114542 0
0.209496 -0.345711 0
0.157538 0.113095 0
-0.161972 0.197965 0
0.209496 -0.345711 0
-0.19256 -0.397046 0
0.342922 -0.114542 0
0.209496 -0.345711 0
0.238276 -0.307387 0
0.071814 -0.348392 0
0.209496 -0.345711 0
-0.19256 -0.397046 0
0.071814 -0.348392 0
-0.0653628 -0.381838 0
0.238276 -0.307387 0
0.071814 -0.348392 0
0.0508317 0.125737 0
-0.395304 -0.663901 0
0.071814 -0.348392 0
-0.0653628 -0.381838 0
-0.395304 -0.663901 0
0.0117447 -1.16819 0
0.0508317 0.125737 0
-0.395304 -0.663901 0
-0.621334 -0.17224 0
-0.91857 -0.729391 0
-0.395304 -0.663901 0
0.0117447 -1.16819 0
-0.91857 -0.729391 0
-0.132902 -1.01117 0
-0.621334 -0.17224 0
-0.91857 -0.729391 0
-0.823711 -0.0552427 0
-1.01389 0.0900236 0
-0.91857 -0.729391 0
-0.132902 -1.01117 0
-1.01389 0.0900236 0
-0.18923 0.241503 0
-0.823711 -0.0552427 0
-1.01389 0.0900236 0
-0.611435 0.274738 0
-0.801394 0.625029 0
-1.01389 0.0900236 0
-0.18923 0.241503 0
-0.801394 0.625029 0
-0.0890237 0.831922 0
-0.611435 0.274738 0
-0.801394 0.625029 0
-0.0649557 0.0121685 0
-0.403465 0.717353 0
-0.801394 0.625029 0
-0.0890237 0.831922 0
-0.403465 0.717353 0
-0.0284557 1.04295 0
-0.0649557 0.0121685 0
-0.403465 0.717353 0
0.334563 -0.163148 0
0.0218283 0.108251 0