# vtk DataFile Version 3.0
#This file was generated by the deal.II library on 2026/3/26 at 11:23:54
ASCII
DATASET UNSTRUCTURED_GRID

POINTS 8784 double
0 0 0
0.214286 0 0
0 0.25 0
0.214286 0.25 0
0 0.25 0
0.214286 0.25 0
0 0.5 0
0.214286 0.5 0
0.214286 0 0
0.428571 0 0
0.214286 0.25 0
0.428571 0.25 0
0.214286 0.25 0
0.428571 0.25 0
0.214286 0.5 0
0.428571 0.5 0
0 3 0
0 2.75 0
0.214286 3 0
0.214286 2.75 0
0.214286 3 0
0.214286 2.75 0
0.428571 3 0
0.428571 2.75 0
0 2.75 0
0 2.5 0
0.214286 2.75 0
0.214286 2.5 0
0.214286 2.75 0
0.214286 2.5 0
0.428571 2.75 0
0.428571 2.5 0
0.857143 0.75 0
0.964286 0.75 0
0.857143 0.875 0
0.964286 0.875 0
0.964286 0.75 0
1.07143 0.75 0
0.964286 0.875 0
1.07143 0.875 0
0.857143 0.875 0
0.964286 0.875 0
0.857143 1 0
0.964286 1 0
0.964286 0.875 0
1.07143 0.875 0
0.964286 1 0
1.07143 1 0
1.07143 0.75 0
1.17857 0.75 0
1.07143 0.875 0
1.17857 0.875 0
1.17857 0.75 0
1.28571 0.75 0
1.17857 0.875 0
1.28571 0.875 0
1.07143 0.875 0
1.17857 0.875 0
1.07143 1 0
1.17857 1 0
1.17857 0.875 0
1.28571 0.875 0
1.17857 1 0
1.28571 1 0
0.857143 2 0
0.857143 1.875 0
0.964286 2 0
0.964286 1.875 0
0.857143 1.875 0
0.857143 1.75 0
0.964286 1.875 0
0.964286 1.75 0
0.964286 2 0
0.964286 1.875 0
1.07143 2 0
1.07143 1.875 0
0.964286 1.875 0
0.964286 1.75 0
1.07143 1.875 0
1.07143 1.75 0
1.07143 2 0
1.07143 1.875 0
1.17857 2 0
1.17857 1.875 0
1.07143 1.875 0
1.07143 1.75 0
1.17857 1.875 0
1.17857 1.75 0
1.17857 2 0
1.17857 1.875 0
1.28571 2 0
1.28571 1.875 0
1.17857 1.875 0
1.17857 1.75 0
1.28571 1.875 0
1.28571 1.75 0
0.857143 1.25 0
0.857143 1.125 0
0.964286 1.25 0
0.964286 1.125 0
0.857143 1.125 0
0.857143 1 0
0.964286 1.125 0
0.964286 1 0
0.964286 1.25 0
0.964286 1.125 0
1.07143 1.25 0
1.07143 1.125 0
0.964286 1.125 0
0.964286 1 0
1.07143 1.125 0
1.07143 1 0
1.07143 1.25 0
1.07143 1.125 0
1.17857 1.25 0
1.17857 1.125 0
1.07143 1.125 0
1.07143 1 0
1.17857 1.125 0
1.17857 1 0
1.17857 1.25 0
1.17857 1.125 0
1.28571 1.25 0
1.28571 1.125 0
1.17857 1.125 0
1.17857 1 0
1.28571 1.125 0
1.28571 1 0
0.857143 2.25 0
0.857143 2.125 0
0.964286 2.25 0
0.964286 2.125 0
0.857143 2.125 0
0.857143 2 0
0.964286 2.125 0
0.964286 2 0
0.964286 2.25 0
0.964286 2.125 0
1.07143 2.25 0
1.07143 2.125 0
0.964286 2.125 0
0.964286 2 0
1.07143 2.125 0
1.07143 2 0
1.07143 2.25 0
1.07143 2.125 0
1.17857 2.25 0
1.17857 2.125 0
1.07143 2.125 0
1.07143 2 0
1.17857 2.125 0
1.17857 2 0
1.17857 2.25 0
1.17857 2.125 0
1.28571 2.25 0
1.28571 2.125 0
1.17857 2.125 0
1.17857 2 0
1.28571 2.125 0
1.28571 2 0
0 0.5 0
0.107143 0.5 0
0 0.625 0
0.107143 0.625 0
0.107143 0.5 0
0.214286 0.5 0
0.107143 0.625 0
0.214286 0.625 0
0 0.625 0
0.107143 0.625 0
0 0.75 0
0.107143 0.75 0
0.107143 0.625 0
0.214286 0.625 0
0.107143 0.75 0
0.214286 0.75 0
0.214286 0.5 0
0.321429 0.5 0
0.214286 0.625 0
0.321429 0.625 0
0.321429 0.5 0
0.428571 0.5 0
0.321429 0.625 0
0.428571 0.625 0
0.214286 0.625 0
0.321429 0.625 0
0.214286 0.75 0
0.321429 0.75 0
0.321429 0.625 0
0.428571 0.625 0
0.321429 0.75 0
0.428571 0.75 0
2.57143 0 0
2.67857 0 0
2.57143 0.125 0
2.67857 0.125 0
2.67857 0 0
2.78571 0 0
2.67857 0.125 0
2.78571 0.125 0
2.57143 0.125 0
2.67857 0.125 0
2.57143 0.25 0
2.67857 0.25 0
2.67857 0.125 0
2.78571 0.125 0
2.67857 0.25 0
2.78571 0.25 0
2.78571 0 0
2.89286 0 0
2.78571 0.125 0
2.89286 0.125 0
2.89286 0 0
3 0 0
2.89286 0.125 0
3 0.125 0
2.78571 0.125 0
2.89286 0.125 0
2.78571 0.25 0
2.89286 0.25 0
2.89286 0.125 0
3 0.125 0
2.89286 0.25 0
3 0.25 0
0.857143 1.75 0
0.857143 1.625 0
0.964286 1.75 0
0.964286 1.625 0
0.857143 1.625 0
0.857143 1.5 0
0.964286 1.625 0
0.964286 1.5 0
0.964286 1.75 0
0.964286 1.625 0
1.07143 1.75 0
1.07143 1.625 0
0.964286 1.625 0
0.964286 1.5 0
1.07143 1.625 0
1.07143 1.5 0
1.07143 1.75 0
1.07143 1.625 0
1.17857 1.75 0
1.17857 1.625 0
1.07143 1.625 0
1.07143 1.5 0
1.17857 1.625 0
1.17857 1.5 0
1.17857 1.75 0
1.17857 1.625 0
1.28571 1.75 0
1.28571 1.625 0
1.17857 1.625 0
1.17857 1.5 0
1.28571 1.625 0
1.28571 1.5 0
1.28571 1.75 0
1.28571 1.625 0
1.39286 1.75 0
1.39286 1.625 0
1.28571 1.625 0
1.28571 1.5 0
1.39286 1.625 0
1.39286 1.5 0
1.39286 1.75 0
1.39286 1.625 0
1.5 1.75 0
1.5 1.625 0
1.39286 1.625 0
1.39286 1.5 0
1.5 1.625 0
1.5 1.5 0
1.5 1.75 0
1.5 1.625 0
1.60714 1.75 0
1.60714 1.625 0
1.5 1.625 0
1.5 1.5 0
1.60714 1.625 0
1.60714 1.5 0
1.60714 1.75 0
1.60714 1.625 0
1.71429 1.75 0
1.71429 1.625 0
1.60714 1.625 0
1.60714 1.5 0
1.71429 1.625 0
1.71429 1.5 0
1.71429 1.75 0
1.71429 1.625 0
1.82143 1.75 0
1.82143 1.625 0
1.71429 1.625 0
1.71429 1.5 0
1.82143 1.625 0
1.82143 1.5 0
1.82143 1.75 0
1.82143 1.625 0
1.92857 1.75 0
1.92857 1.625 0
1.82143 1.625 0
1.82143 1.5 0
1.92857 1.625 0
1.92857 1.5 0
1.92857 1.75 0
1.92857 1.625 0
2.03571 1.75 0
2.03571 1.625 0
1.92857 1.625 0
1.92857 1.5 0
2.03571 1.625 0
2.03571 1.5 0
2.03571 1.75 0
2.03571 1.625 0
2.14286 1.75 0
2.14286 1.625 0
2.03571 1.625 0
2.03571 1.5 0
2.14286 1.625 0
2.14286 1.5 0
2.14286 1.75 0
2.14286 1.625 0
2.25 1.75 0
2.25 1.625 0
2.14286 1.625 0
2.14286 1.5 0
2.25 1.625 0
2.25 1.5 0
2.25 1.75 0
2.25 1.625 0
2.35714 1.75 0
2.35714 1.625 0
2.25 1.625 0
2.25 1.5 0
2.35714 1.625 0
2.35714 1.5 0
1.07143 1.5 0
1.07143 1.375 0
1.17857 1.5 0
1.17857 1.375 0
1.07143 1.375 0
1.07143 1.25 0
1.17857 1.375 0
1.17857 1.25 0
1.17857 1.5 0
1.17857 1.375 0
1.28571 1.5 0
1.28571 1.375 0
1.17857 1.375 0
1.17857 1.25 0
1.28571 1.375 0
1.28571 1.25 0
1.28571 1.5 0
1.28571 1.375 0
1.39286 1.5 0
1.39286 1.375 0
1.28571 1.375 0
1.28571 1.25 0
1.39286 1.375 0
1.39286 1.25 0
1.39286 1.5 0
1.39286 1.375 0
1.5 1.5 0
1.5 1.375 0
1.39286 1.375 0
1.39286 1.25 0
1.5 1.375 0
1.5 1.25 0
1.5 1.5 0
1.5 1.375 0
1.60714 1.5 0
1.60714 1.375 0
1.5 1.375 0
1.5 1.25 0
1.60714 1.375 0
1.60714 1.25 0
1.60714 1.5 0
1.60714 1.375 0
1.71429 1.5 0
1.71429 1.375 0
1.60714 1.375 0
1.60714 1.25 0
1.71429 1.375 0
1.71429 1.25 0
1.71429 1.5 0
1.71429 1.375 0
1.82143 1.5 0
1.82143 1.375 0
1.71429 1.375 0
1.71429 1.25 0
1.82143 1.375 0
1.82143 1.25 0
1.82143 1.5 0
1.82143 1.375 0
1.92857 1.5 0
1.92857 1.375 0
1.82143 1.375 0
1.82143 1.25 0
1.92857 1.375 0
1.92857 1.25 0
1.92857 1.5 0
1.92857 1.375 0
2.03571 1.5 0
2.03571 1.375 0
1.92857 1.375 0
1.92857 1.25 0
2.03571 1.375 0
2.03571 1.25 0
2.03571 1.5 0
2.03571 1.375 0
2.14286 1.5 0
2.14286 1.375 0
2.03571 1.375 0
2.03571 1.25 0
2.14286 1.375 0
2.14286 1.25 0
2.14286 1.5 0
2.14286 1.375 0
2.25 1.5 0
2.25 1.375 0
2.14286 1.375 0
2.14286 1.25 0
2.25 1.375 0
2.25 1.25 0
2.25 1.5 0
2.25 1.375 0
2.35714 1.5 0
2.35714 1.375 0
2.25 1.375 0
2.25 1.25 0
2.35714 1.375 0
2.35714 1.25 0
2.57143 3 0
2.57143 2.875 0
2.67857 3 0
2.67857 2.875 0
2.57143 2.875 0
2.57143 2.75 0
2.67857 2.875 0
2.67857 2.75 0
2.67857 3 0
2.67857 2.875 0
2.78571 3 0
2.78571 2.875 0
2.67857 2.875 0
2.67857 2.75 0
2.78571 2.875 0
2.78571 2.75 0
2.78571 3 0
2.78571 2.875 0
2.89286 3 0
2.89286 2.875 0
2.78571 2.875 0
2.78571 2.75 0
2.89286 2.875 0
2.89286 2.75 0
2.89286 3 0
2.89286 2.875 0
3 3 0
3 2.875 0
2.89286 2.875 0
2.89286 2.75 0
3 2.875 0
3 2.75 0
0 2.5 0
0 2.375 0
0.107143 2.5 0
0.107143 2.375 0
0 2.375 0
0 2.25 0
0.107143 2.375 0
0.107143 2.25 0
0.107143 2.5 0
0.107143 2.375 0
0.214286 2.5 0
0.214286 2.375 0
0.107143 2.375 0
0.107143 2.25 0
0.214286 2.375 0
0.214286 2.25 0
0.214286 2.5 0
0.214286 2.375 0
0.321429 2.5 0
0.321429 2.375 0
0.214286 2.375 0
0.214286 2.25 0
0.321429 2.375 0
0.321429 2.25 0
0.321429 2.5 0
0.321429 2.375 0
0.428571 2.5 0
0.428571 2.375 0
0.321429 2.375 0
0.321429 2.25 0
0.428571 2.375 0
0.428571 2.25 0
0.428571 0 0
0.535714 0 0
0.428571 0.125 0
0.535714 0.125 0
0.535714 0 0
0.642857 0 0
0.535714 0.125 0
0.642857 0.125 0
0.428571 0.125 0
0.535714 0.125 0
0.428571 0.25 0
0.535714 0.25 0
0.535714 0.125 0
0.642857 0.125 0
0.535714 0.25 0
0.642857 0.25 0
0.428571 0.25 0
0.535714 0.25 0
0.428571 0.375 0
0.535714 0.375 0
0.535714 0.25 0
0.642857 0.25 0
0.535714 0.375 0
0.642857 0.375 0
0.428571 0.375 0
0.535714 0.375 0
0.428571 0.5 0
0.535714 0.5 0
0.535714 0.375 0
0.642857 0.375 0
0.535714 0.5 0
0.642857 0.5 0
0.428571 0.5 0
0.535714 0.5 0
0.428571 0.625 0
0.535714 0.625 0
0.535714 0.5 0
0.642857 0.5 0
0.535714 0.625 0
0.642857 0.625 0
0.428571 0.625 0
0.535714 0.625 0
0.428571 0.75 0
0.535714 0.75 0
0.535714 0.625 0
0.642857 0.625 0
0.535714 0.75 0
0.642857 0.75 0
0.642857 0 0
0.75 0 0
0.642857 0.125 0
0.75 0.125 0
0.75 0 0
0.857143 0 0
0.75 0.125 0
0.857143 0.125 0
0.642857 0.125 0
0.75 0.125 0
0.642857 0.25 0
0.75 0.25 0
0.75 0.125 0
0.857143 0.125 0
0.75 0.25 0
0.857143 0.25 0
0.642857 0.25 0
0.75 0.25 0
0.642857 0.375 0
0.75 0.375 0
0.75 0.25 0
0.857143 0.25 0
0.75 0.375 0
0.857143 0.375 0
0.642857 0.375 0
0.75 0.375 0
0.642857 0.5 0
0.75 0.5 0
0.75 0.375 0
0.857143 0.375 0
0.75 0.5 0
0.857143 0.5 0
0.642857 0.5 0
0.75 0.5 0
0.642857 0.625 0
0.75 0.625 0
0.75 0.5 0
0.857143 0.5 0
0.75 0.625 0
0.857143 0.625 0
0.642857 0.625 0
0.75 0.625 0
0.642857 0.75 0
0.75 0.75 0
0.75 0.625 0
0.857143 0.625 0
0.75 0.75 0
0.857143 0.75 0
0.857143 0 0
0.964286 0 0
0.857143 0.125 0
0.964286 0.125 0
0.964286 0 0
1.07143 0 0
0.964286 0.125 0
1.07143 0.125 0
0.857143 0.125 0
0.964286 0.125 0
0.857143 0.25 0
0.964286 0.25 0
0.964286 0.125 0
1.07143 0.125 0
0.964286 0.25 0
1.07143 0.25 0
0.857143 0.25 0
0.964286 0.25 0
0.857143 0.375 0
0.964286 0.375 0
0.964286 0.25 0
1.07143 0.25 0
0.964286 0.375 0
1.07143 0.375 0
0.857143 0.375 0
0.964286 0.375 0
0.857143 0.5 0
0.964286 0.5 0
0.964286 0.375 0
1.07143 0.375 0
0.964286 0.5 0
1.07143 0.5 0
0.857143 0.5 0
0.964286 0.5 0
0.857143 0.625 0
0.964286 0.625 0
0.964286 0.5 0
1.07143 0.5 0
0.964286 0.625 0
1.07143 0.625 0
0.857143 0.625 0
0.964286 0.625 0
0.857143 0.75 0
0.964286 0.75 0
0.964286 0.625 0
1.07143 0.625 0
0.964286 0.75 0
1.07143 0.75 0
1.07143 0 0
1.17857 0 0
1.07143 0.125 0
1.17857 0.125 0
1.17857 0 0
1.28571 0 0
1.17857 0.125 0
1.28571 0.125 0
1.07143 0.125 0
1.17857 0.125 0
1.07143 0.25 0
1.17857 0.25 0
1.17857 0.125 0
1.28571 0.125 0
1.17857 0.25 0
1.28571 0.25 0
1.07143 0.25 0
1.17857 0.25 0
1.07143 0.375 0
1.17857 0.375 0
1.17857 0.25 0
1.28571 0.25 0
[...]
POINT_DATA 8784
VECTORS velocity double
0 0 0
0 0 0
0 0 0
-0.0117185 0.0409537 0
0 0 0
-0.0117185 0.0409537 0
0 0 0
0.101992 -0.0281251 0
0 0 0
0 0 0
-0.0117185 0.0409537 0
0.0103445 -0.062858 0
-0.0117185 0.0409537 0
0.0103445 -0.062858 0
0.101992 -0.0281251 0
-0.0126258 0.0940582 0
0 0 0
0 0 0
0 0 0
0.123794 0.156693 0
0 0 0
0.123794 0.156693 0
0 0 0
0.215189 -0.0495684 0
0 0 0
0 0 0
0.123794 0.156693 0
0.00481362 0.293691 0
0.123794 0.156693 0
0.00481362 0.293691 0
0.215189 -0.0495684 0
-0.0150487 -0.0876529 0
0.120104 0.0174405 0
0.189693 -0.0124906 0
-0.239417 -0.0128377 0
-0.15231 -0.161938 0
0.189693 -0.0124906 0
0.0557568 -0.053019 0
-0.15231 -0.161938 0
-0.167583 0.258431 0
-0.239417 -0.0128377 0
-0.15231 -0.161938 0
0.330378 0.0830944 0
0.208628 -0.206569 0
-0.15231 -0.161938 0
-0.167583 0.258431 0
0.208628 -0.206569 0
0.289436 0.237193 0
0.0557568 -0.053019 0
0.315491 -0.204093 0
-0.167583 0.258431 0
-0.435118 -0.540182 0
0.315491 -0.204093 0
0.434881 0.187669 0
-0.435118 -0.540182 0
-0.194715 0.111726 0
-0.167583 0.258431 0
-0.435118 -0.540182 0
0.289436 0.237193 0
0.378852 -0.327691 0
-0.435118 -0.540182 0
-0.194715 0.111726 0
0.378852 -0.327691 0
0.196534 -0.114944 0
0.255771 0.11477 0
0.025093 0.0527958 0
0.202579 0.0556875 0
-0.000374106 0.00512429 0
0.025093 0.0527958 0
0.148461 0.0844946 0
-0.000374106 0.00512429 0
0.218163 0.0420496 0
0.202579 0.0556875 0
-0.000374106 0.00512429 0
0.19139 0.0221028 0
-0.0356629 0.0126641 0
-0.000374106 0.00512429 0
0.218163 0.0420496 0
-0.0356629 0.0126641 0
0.214907 -0.0586236 0
0.19139 0.0221028 0
-0.0356629 0.0126641 0
0.177588 -0.0205238 0
-0.0274197 -0.0145584 0
-0.0356629 0.0126641 0
0.214907 -0.0586236 0
-0.0274197 -0.0145584 0
0.0516699 -0.112628 0
0.177588 -0.0205238 0
-0.0274197 -0.0145584 0
0.175504 -0.056864 0
-0.0214875 -0.0546622 0
-0.0274197 -0.0145584 0
0.0516699 -0.112628 0
-0.0214875 -0.0546622 0
-0.0718053 -0.0973672 0
0.135217 -0.0180009 0
0.214422 -0.000911317 0
0.112396 0.00913766 0
0.239712 -0.0241913 0
0.214422 -0.000911317 0
0.330378 0.0830944 0
0.239712 -0.0241913 0
0.208628 -0.206569 0
0.112396 0.00913766 0
0.239712 -0.0241913 0
0.0302849 0.0247038 0
0.232675 -0.0384633 0
0.239712 -0.0241913 0
0.208628 -0.206569 0
0.232675 -0.0384633 0
0.289436 0.237193 0
0.0302849 0.0247038 0
0.232675 -0.0384633 0
-0.0307098 0.0496964 0
0.147441 -0.0734667 0
0.232675 -0.0384633 0
0.289436 0.237193 0
0.147441 -0.0734667 0
0.378852 -0.327691 0
-0.0307098 0.0496964 0
0.147441 -0.0734667 0
-0.0429169 0.0621046 0
0.0185347 0.00394683 0
0.147441 -0.0734667 0
0.378852 -0.327691 0
0.0185347 0.00394683 0
0.196534 -0.114944 0
0.472418 -0.232088 0
-0.177892 0.00867135 0
0.552876 -0.00192502 0
-0.00492725 0.0286286 0
-0.177892 0.00867135 0
0.255771 0.11477 0
-0.00492725 0.0286286 0
0.202579 0.0556875 0
0.552876 -0.00192502 0
-0.00492725 0.0286286 0
0.402064 0.138609 0
0.0554477 -0.0145127 0
-0.00492725 0.0286286 0
0.202579 0.0556875 0
0.0554477 -0.0145127 0
0.19139 0.0221028 0
0.402064 0.138609 0
0.0554477 -0.0145127 0
0.215982 0.226374 0
-0.00609832 0.113884 0
0.0554477 -0.0145127 0
0.19139 0.0221028 0
-0.00609832 0.113884 0
0.177588 -0.0205238 0
0.215982 0.226374 0
-0.00609832 0.113884 0
-0.0415756 -0.0902023 0
0.0394413 -0.223563 0
-0.00609832 0.113884 0
0.177588 -0.0205238 0
0.0394413 -0.223563 0
0.175504 -0.056864 0
0 0 0
0.0318832 -0.0526138 0
0 0 0
0.106193 -0.205961 0
0.0318832 -0.0526138 0
0.101992 -0.0281251 0
0.106193 -0.205961 0
0.107598 0.00902125 0
0 0 0
0.106193 -0.205961 0
0 0 0
-0.0845134 -0.189835 0
0.106193 -0.205961 0
0.107598 0.00902125 0
-0.0845134 -0.189835 0
-0.26997 0.201455 0
0.101992 -0.0281251 0
0.113423 0.0527034 0
0.107598 0.00902125 0
0.141911 -0.00923049 0
0.113423 0.0527034 0
-0.0126258 0.0940582 0
0.141911 -0.00923049 0
0.188004 0.239765 0
0.107598 0.00902125 0
0.141911 -0.00923049 0
-0.26997 0.201455 0
-0.292654 -0.198524 0
0.141911 -0.00923049 0
0.188004 0.239765 0
-0.292654 -0.198524 0
-0.269035 0.328619 0
0 0 0
0 0 0
-0.198257 0.113409 0
-0.295831 0.00659516 0
0 0 0
0 0 0
-0.295831 0.00659516 0
-0.248439 -0.0695411 0
-0.198257 0.113409 0
-0.295831 0.00659516 0
-0.0701301 0.0384641 0
0.0110061 0.105093 0
-0.295831 0.00659516 0
-0.248439 -0.0695411 0
0.0110061 0.105093 0
-0.0444711 -0.148965 0
0 0 0
0 0 0
-0.248439 -0.0695411 0
-0.105505 -0.12871 0
0 0 0
0 0 0
-0.105505 -0.12871 0
0 0 0
-0.248439 -0.0695411 0
-0.105505 -0.12871 0
-0.0444711 -0.148965 0
-0.0325077 -0.244748 0
-0.105505 -0.12871 0
0 0 0
-0.0325077 -0.244748 0
0 0 0
0.148461 0.0844946 0
0.125754 0.0714497 0
0.218163 0.0420496 0
0.132354 0.136554 0
0.125754 0.0714497 0
-0.126278 -0.176889 0
0.132354 0.136554 0
-0.302592 0.187855 0
0.218163 0.0420496 0
0.132354 0.136554 0
0.214907 -0.0586236 0
0.228455 -0.0698487 0
0.132354 0.136554 0
-0.302592 0.187855 0
0.228455 -0.0698487 0
-0.297076 0.0115799 0
0.214907 -0.0586236 0
0.228455 -0.0698487 0
0.0516699 -0.112628 0
0.239265 -0.289577 0
0.228455 -0.0698487 0
-0.297076 0.0115799 0
0.239265 -0.289577 0
-0.149443 -0.19274 0
0.0516699 -0.112628 0
0.239265 -0.289577 0
-0.0718053 -0.0973672 0
0.337724 0.0652257 0
0.239265 -0.289577 0
-0.149443 -0.19274 0
0.337724 0.0652257 0
-0.143087 0.0661865 0
-0.0718053 -0.0973672 0
0.337724 0.0652257 0
-0.0292771 0.0393572 0
0.350121 -0.0314794 0
0.337724 0.0652257 0
-0.143087 0.0661865 0
0.350121 -0.0314794 0
-0.184599 -0.102555 0
-0.0292771 0.0393572 0
0.350121 -0.0314794 0
0.173797 0.0386131 0
0.315754 0.331403 0
0.350121 -0.0314794 0
-0.184599 -0.102555 0
0.315754 0.331403 0
-0.308096 0.185855 0
0.173797 0.0386131 0
0.315754 0.331403 0
0.305856 -0.028808 0
0.42546 -0.0292336 0
0.315754 0.331403 0
-0.308096 0.185855 0
0.42546 -0.0292336 0
-0.438408 0.0819439 0
0.305856 -0.028808 0
0.42546 -0.0292336 0
0.189188 -0.0761898 0
0.364155 -0.279632 0
0.42546 -0.0292336 0
-0.438408 0.0819439 0
0.364155 -0.279632 0
-0.235286 -0.232018 0
0.189188 -0.0761898 0
0.364155 -0.279632 0
0.0259276 0.0342791 0
0.333207 -0.00623468 0
0.364155 -0.279632 0
-0.235286 -0.232018 0
0.333207 -0.00623468 0
-0.0935396 0.0632337 0
0.0259276 0.0342791 0
0.333207 -0.00623468 0
0.0640187 0.0683893 0
0.327698 0.148473 0
0.333207 -0.00623468 0
-0.0935396 0.0632337 0
0.327698 0.148473 0
-0.116127 0.0349741 0
0.0640187 0.0683893 0
0.327698 0.148473 0
0.212593 0.12348 0
0.0863411 -0.0702667 0
0.327698 0.148473 0
-0.116127 0.0349741 0
0.0863411 -0.0702667 0
-0.00747275 -0.111106 0
0.212593 0.12348 0
0.0863411 -0.0702667 0
0.348225 0.148147 0
-0.183499 0.17428 0
0.0863411 -0.0702667 0
-0.00747275 -0.111106 0
-0.183499 0.17428 0
0.113921 0.0280357 0
0.348225 0.148147 0
-0.183499 0.17428 0
0.427464 0.122722 0
-0.380781 -0.0341217 0
-0.183499 0.17428 0
0.113921 0.0280357 0
-0.380781 -0.0341217 0
0.153681 -0.0616468 0
0.427464 0.122722 0
-0.380781 -0.0341217 0
0.302505 -0.0462014 0
-0.583154 -0.275518 0
-0.380781 -0.0341217 0
0.153681 -0.0616468 0
-0.583154 -0.275518 0
0.404741 -0.18475 0
-0.297076 0.0115799 0
0.469769 0.0296927 0
-0.149443 -0.19274 0
0.539685 0.0160934 0
0.469769 0.0296927 0
0.0302849 0.0247038 0
0.539685 0.0160934 0
-0.0307098 0.0496964 0
-0.149443 -0.19274 0
0.539685 0.0160934 0
-0.143087 0.0661865 0
0.632573 -0.0179955 0
0.539685 0.0160934 0
-0.0307098 0.0496964 0
0.632573 -0.0179955 0
-0.0429169 0.0621046 0
-0.143087 0.0661865 0
0.632573 -0.0179955 0
-0.184599 -0.102555 0
0.650004 -0.0400933 0
0.632573 -0.0179955 0
-0.0429169 0.0621046 0
0.650004 -0.0400933 0
0.0550602 0.0134858 0
-0.184599 -0.102555 0
0.650004 -0.0400933 0
-0.308096 0.185855 0
0.561815 -0.0963451 0
0.650004 -0.0400933 0
0.0550602 0.0134858 0
0.561815 -0.0963451 0
0.180879 -0.107521 0
-0.308096 0.185855 0
0.561815 -0.0963451 0
-0.438408 0.0819439 0
0.377036 0.022209 0
0.561815 -0.0963451 0
0.180879 -0.107521 0
0.377036 0.022209 0
0.324096 -0.0279935 0
-0.438408 0.0819439 0
0.377036 0.022209 0
-0.235286 -0.232018 0
0.275955 -0.0295687 0
0.377036 0.022209 0
0.324096 -0.0279935 0
0.275955 -0.0295687 0
0.409418 -0.0434948 0
-0.235286 -0.232018 0
0.275955 -0.0295687 0
-0.0935396 0.0632337 0
0.335963 0.138097 0
0.275955 -0.0295687 0
0.409418 -0.0434948 0
0.335963 0.138097 0
0.274394 0.0370025 0
-0.0935396 0.0632337 0
0.335963 0.138097 0
-0.116127 0.0349741 0
0.442556 0.0942906 0
0.335963 0.138097 0
0.274394 0.0370025 0
0.442556 0.0942906 0
0.0761413 0.0553115 0
-0.116127 0.0349741 0
0.442556 0.0942906 0
-0.00747275 -0.111106 0
0.512482 0.0437191 0
0.442556 0.0942906 0
0.0761413 0.0553115 0
0.512482 0.0437191 0
-0.0329701 0.0260475 0
-0.00747275 -0.111106 0
0.512482 0.0437191 0
0.113921 0.0280357 0
0.50556 0.0128361 0
0.512482 0.0437191 0
-0.0329701 0.0260475 0
0.50556 0.0128361 0
-0.113663 -0.0940997 0
0.113921 0.0280357 0
0.50556 0.0128361 0
0.153681 -0.0616468 0
0.540354 0.0548726 0
0.50556 0.0128361 0
-0.113663 -0.0940997 0
0.540354 0.0548726 0
-0.146849 0.15696 0
0.153681 -0.0616468 0
0.540354 0.0548726 0
0.404741 -0.18475 0
0.639027 0.105322 0
0.540354 0.0548726 0
-0.146849 0.15696 0
0.639027 0.105322 0
-0.145477 0.0979025 0
0 0 0
-0.112432 -0.100773 0
0 0 0
-0.265317 -0.0666157 0
-0.112432 -0.100773 0
0.178602 -0.102849 0
-0.265317 -0.0666157 0
0.244161 -0.177933 0
0 0 0
-0.265317 -0.0666157 0
0 0 0
-0.369631 -0.0145117 0
-0.265317 -0.0666157 0
0.244161 -0.177933 0
-0.369631 -0.0145117 0
0.274329 0.0441404 0
0 0 0
-0.369631 -0.0145117 0
0 0 0
-0.184944 0.273028 0
-0.369631 -0.0145117 0
0.274329 0.0441404 0
-0.184944 0.273028 0
0.182148 0.262426 0
0 0 0
-0.184944 0.273028 0
0 0 0
0 0 0
-0.184944 0.273028 0
0.182148 0.262426 0
0 0 0
0 0 0
0 0 0
0 0 0
0.00513836 0.149734 0
-0.0615958 0.0727949 0
0 0 0
0 0 0
-0.0615958 0.0727949 0
0.072338 0.0750733 0
0.00513836 0.149734 0
-0.0615958 0.0727949 0
0.00481362 0.293691 0
-0.180167 0.230455 0
-0.0615958 0.0727949 0
0.072338 0.0750733 0
-0.180167 0.230455 0
-0.126917 -0.136373 0
0.00481362 0.293691 0
-0.180167 0.230455 0
-0.00652095 0.0838515 0
-0.12274 0.18823 0
-0.180167 0.230455 0
-0.126917 -0.136373 0
-0.12274 0.18823 0
-0.447037 0.227472 0
-0.00652095 0.0838515 0
-0.12274 0.18823 0
-0.0150487 -0.0876529 0
-0.0959104 -0.133426 0
-0.12274 0.18823 0
-0.447037 0.227472 0
-0.0959104 -0.133426 0
-0.469004 -0.118534 0
0 0 0
0 0 0
-0.00755039 -0.0152625 0
0.0471381 -0.0341967 0
0 0 0
0 0 0
0.0471381 -0.0341967 0
0.0197787 0.0896314 0
-0.00755039 -0.0152625 0
0.0471381 -0.0341967 0
0.0103445 -0.062858 0
0.0218264 -0.0705536 0
0.0471381 -0.0341967 0
0.0197787 0.0896314 0
0.0218264 -0.0705536 0
-0.0202796 0.199412 0
0.0103445 -0.062858 0
0.0218264 -0.0705536 0
-0.00265079 -0.0563514 0
-0.0986364 0.0311278 0
0.0218264 -0.0705536 0
-0.0202796 0.199412 0
-0.0986364 0.0311278 0
-0.0779135 0.115399 0
-0.00265079 -0.0563514 0
-0.0986364 0.0311278 0
-0.0126258 0.0940582 0
-0.0549577 0.072173 0
-0.0986364 0.0311278 0
-0.0779135 0.115399 0
-0.0549577 0.072173 0
0.00330147 -0.000321996 0
-0.0126258 0.0940582 0
-0.0549577 0.072173 0
0.188004 0.239765 0
0.0769482 0.10643 0
-0.0549577 0.072173 0
0.00330147 -0.000321996 0
0.0769482 0.10643 0
0.00316992 -0.0110149 0
0.188004 0.239765 0
0.0769482 0.10643 0
-0.269035 0.328619 0
-0.159556 0.0291529 0
0.0769482 0.10643 0
0.00316992 -0.0110149 0
-0.159556 0.0291529 0
-0.073841 0.0423262 0
0 0 0
0 0 0
0.0197787 0.0896314 0
-0.103032 0.0784389 0
0 0 0
0 0 0
-0.103032 0.0784389 0
-0.168543 0.0110086 0
0.0197787 0.0896314 0
-0.103032 0.0784389 0
-0.0202796 0.199412 0
0.00914137 0.0803685 0
-0.103032 0.0784389 0
-0.168543 0.0110086 0
0.00914137 0.0803685 0
-0.00451038 0.0722631 0
-0.0202796 0.199412 0
0.00914137 0.0803685 0
-0.0779135 0.115399 0
-0.0923834 0.142338 0
0.00914137 0.0803685 0
-0.00451038 0.0722631 0
-0.0923834 0.142338 0
-0.374498 0.331304 0
-0.0779135 0.115399 0
-0.0923834 0.142338 0
0.00330147 -0.000321996 0
-0.078166 0.400909 0
-0.0923834 0.142338 0
-0.374498 0.331304 0
-0.078166 0.400909 0
-0.0952775 0.435429 0
0.00330147 -0.000321996 0
-0.078166 0.400909 0
0.00316992 -0.0110149 0
0.19899 0.291508 0
-0.078166 0.400909 0
-0.0952775 0.435429 0
0.19899 0.291508 0
0.483705 0.252997 0
0.00316992 -0.0110149 0
0.19899 0.291508 0
-0.073841 0.0423262 0
-0.0571455 -0.0180242 0
0.19899 0.291508 0
0.483705 0.252997 0
-0.0571455 -0.0180242 0
0.120104 0.0174405 0
0 0 0
0 0 0
-0.168543 0.0110086 0
-0.144503 -0.032759 0
0 0 0
0 0 0
-0.144503 -0.032759 0
-0.184886 0.0834687 0
-0.168543 0.0110086 0
-0.144503 -0.032759 0
-0.00451038 0.0722631 0
-0.14508 0.0170514 0
-0.144503 -0.032759 0
-0.184886 0.0834687 0
-0.14508 0.0170514 0
-0.0753748 0.00419397 0
-0.00451038 0.0722631 0
-0.14508 0.0170514 0
-0.374498 0.331304 0
-0.474328 0.0483372 0
-0.14508 0.0170514 0
-0.0753748 0.00419397 0
-0.474328 0.0483372 0
-0.317922 -0.282949 0
-0.374498 0.331304 0
-0.474328 0.0483372 0
-0.0952775 0.435429 0
0.0256408 -0.0770679 0
-0.474328 0.0483372 0
-0.317922 -0.282949 0
0.0256408 -0.0770679 0
0.10415 -0.436245 0
-0.0952775 0.435429 0
0.0256408 -0.0770679 0
0.483705 0.252997 0
0.550817 -0.115249 0
0.0256408 -0.0770679 0
0.10415 -0.436245 0
0.550817 -0.115249 0
0.389573 -0.296612 0
0.483705 0.252997 0
0.550817 -0.115249 0
0.120104 0.0174405 0
0.189693 -0.0124906 0
0.550817 -0.115249 0
0.389573 -0.296612 0
0.189693 -0.0124906 0
0.0557568 -0.053019 0
0 0 0
0 0 0
-0.184886 0.0834687 0
-0.201414 -0.0822785 0
0 0 0
0 0 0
-0.201414 -0.0822785 0
-0.0469249 -0.111549 0
-0.184886 0.0834687 0
-0.201414 -0.0822785 0
-0.0753748 0.00419397 0
-0.000251758 -0.0672925 0
-0.201414 -0.0822785 0
-0.0469249 -0.111549 0
-0.000251758 -0.0672925 0
0.049136 -0.375203 0
-0.0753748 0.00419397 0
-0.000251758 -0.0672925 0
-0.317922 -0.282949 0
-0.0377817 -0.207662 0
-0.000251758 -0.0672925 0
0.049136 -0.375203 0
-0.0377817 -0.207662 0
0.0868587 -0.469847 0
-0.317922 -0.282949 0
-0.0377817 -0.207662 0
0.10415 -0.436245 0
0.061775 -0.281537 0
-0.0377817 -0.207662 0
0.0868587 -0.469847 0
0.061775 -0.281537 0
-0.193453 -0.245345 0
0.10415 -0.436245 0
0.061775 -0.281537 0
0.389573 -0.296612 0
0.0946102 0.00020132 0
0.061775 -0.281537 0
-0.193453 -0.245345 0
0.0946102 0.00020132 0
-0.0632923 -0.0644528 0
0.389573 -0.296612 0
0.0946102 0.00020132 0
0.0557568 -0.053019 0
0.315491 -0.204093 0
0.0946102 0.00020132 0
-0.0632923 -0.0644528 0
0.315491 -0.204093 0
0.434881 0.187669 0
0 0 0
0 0 0
-0.0469249 -0.111549 0
-0.0348387 0.144629 0
0 0 0
0 0 0
-0.0348387 0.144629 0
0.157059 -0.416095 0
-0.0469249 -0.111549 0
-0.0348387 0.144629 0
0.049136 -0.375203 0
0.234232 0.194294 0
-0.0348387 0.144629 0
0.157059 -0.416095 0
0.234232 0.194294 0
-0.132238 -0.334326 0
0.049136 -0.375203 0
0.234232 0.194294 0
0.0868587 -0.469847 0
-0.0215585 0.262403 0
0.234232 0.194294 0
-0.132238 -0.334326 0
-0.0215585 0.262403 0
-0.110861 0.143269 0
0.0868587 -0.469847 0
-0.0215585 0.262403 0
-0.193453 -0.245345 0
-0.0592563 0.044159 0
-0.0215585 0.262403 0
-0.110861 0.143269 0
-0.0592563 0.044159 0
0.135198 0.219516 0
0 0 0
0 0 0
0.157059 -0.416095 0
0.44756 0.130254 0
0 0 0
0 0 0
0.44756 0.130254 0
0.183739 0.191735 0
0.157059 -0.416095 0
0.44756 0.130254 0
-0.132238 -0.334326 0
-0.440495 0.094264 0
0.44756 0.130254 0
0.183739 0.191735 0
-0.440495 0.094264 0
-0.24395 0.248349 0
-0.132238 -0.334326 0
-0.440495 0.094264 0
-0.110861 0.143269 0
0.0234853 -0.0982193 0
-0.440495 0.094264 0
-0.24395 0.248349 0
0.0234853 -0.0982193 0
0.0210103 0.252113 0
-0.110861 0.143269 0
0.0234853 -0.0982193 0
0.135198 0.219516 0
-0.0437913 -0.131068 0
0.0234853 -0.0982193 0
0.0210103 0.252113 0
-0.0437913 -0.131068 0
-0.0659709 0.299988 0
0 0 0
0 0 0
0.183739 0.191735 0
0.0943739 -0.0749424 0
0 0 0
0 0 0
0.0943739 -0.0749424 0
0.0568586 0.125537 0
0.183739 0.191735 0
0.0943739 -0.0749424 0
-0.24395 0.248349 0
-0.256095 -0.0132001 0
0.0943739 -0.0749424 0
0.0568586 0.125537 0
-0.256095 -0.0132001 0
-0.205444 0.0601955 0
-0.24395 0.248349 0
-0.256095 -0.0132001 0
0.0210103 0.252113 0
-0.0374096 0.0481365 0
-0.256095 -0.0132001 0
-0.205444 0.0601955 0
-0.0374096 0.0481365 0
-0.141736 0.0419497 0
0.0210103 0.252113 0
-0.0374096 0.0481365 0
-0.0659709 0.299988 0
-0.019322 0.0184984 0
-0.0374096 0.0481365 0
-0.141736 0.0419497 0
-0.019322 0.0184984 0
-0.14575 0.400201 0
0 0 0
0 0 0
0.0568586 0.125537 0
0.0510204 -0.134117 0
0 0 0
0 0 0
0.0510204 -0.134117 0
0.535168 -0.443647 0
0.0568586 0.125537 0
0.0510204 -0.134117 0
-0.205444 0.0601955 0
-0.0728866 -0.216688 0
0.0510204 -0.134117 0
0.535168 -0.443647 0
-0.0728866 -0.216688 0
-0.220449 -0.717263 0
-0.205444 0.0601955 0
-0.0728866 -0.216688 0
-0.141736 0.0419497 0
-0.432227 -0.0696945 0
-0.0728866 -0.216688 0
-0.220449 -0.717263 0
-0.432227 -0.0696945 0
-0.621456 -0.494156 0
-0.141736 0.0419497 0
-0.432227 -0.0696945 0
-0.14575 0.400201 0
-0.00524471 -0.250758 0
-0.432227 -0.0696945 0
-0.621456 -0.494156 0
-0.00524471 -0.250758 0
0.327286 -0.386359 0
0 0 0
0.106449 -0.0151758 0
0 0 0
0.059284 -0.048519 0
0.106449 -0.0151758 0
0.215189 -0.0495684 0
0.059284 -0.048519 0
0.209934 -0.0810757 0
0 0 0
0.059284 -0.048519 0
0 0 0
0.0118319 -0.0189435 0
0.059284 -0.048519 0
0.209934 -0.0810757 0
0.0118319 -0.0189435 0
0.163261 -0.0991028 0
0 0 0
0.0118319 -0.0189435 0
0 0 0
0.0253367 0.0249536 0
0.0118319 -0.0189435 0
0.163261 -0.0991028 0
0.0253367 0.0249536 0
0.0430554 -0.0113022 0
0 0 0
0.0253367 0.0249536 0
0 0 0
0.0793222 0.044279 0
0.0253367 0.0249536 0
0.0430554 -0.0113022 0
0.0793222 0.044279 0
-0.19113 -0.0883851 0
0 0 0
0.0793222 0.044279 0
0 0 0
0.115815 -0.00566928 0
0.0793222 0.044279 0
-0.19113 -0.0883851 0
0.115815 -0.00566928 0
-0.37186 -0.0242946 0
0 0 0
0.115815 -0.00566928 0
0 0 0
0.0743097 -0.0529361 0
0.115815 -0.00566928 0
-0.37186 -0.0242946 0
0.0743097 -0.0529361 0
-0.200917 0.115273 0
0 0 0
0.0743097 -0.0529361 0
0 0 0
0.0361844 0.0153697 0
0.0743097 -0.0529361 0
-0.200917 0.115273 0
0.0361844 0.0153697 0
0.0625478 0.110394 0
0 0 0
0.0361844 0.0153697 0
0 0 0
-0.00922169 -0.0619426 0
0.0361844 0.0153697 0
0.0625478 0.110394 0
-0.00922169 -0.0619426 0
0.181437 -0.0690977 0
0 0 0
-0.00922169 -0.0619426 0
0 0 0
-0.0543156 0.0131354 0
-0.00922169 -0.0619426 0
0.181437 -0.0690977 0
-0.0543156 0.0131354 0
0.237017 0.00562364 0
0 0 0
-0.0543156 0.0131354 0
0 0 0
0.808286 1.04979 0
-0.0543156 0.0131354 0
0.237017 0.00562364 0
0.808286 1.04979 0
-0.648 1.00839 0
0 0 0
0.808286 1.04979 0
0 0 0
1.2039 -0.645462 0
0.808286 1.04979 0
-0.648 1.00839 0
1.2039 -0.645462 0
-0.916938 -0.536383 0
0 0 0
1.2039 -0.645462 0
0 0 0
0.157511 -0.582188 0
1.2039 -0.645462 0
-0.916938 -0.536383 0
0.157511 -0.582188 0
-0.0827994 -0.883579 0
0 0 0
0.157511 -0.582188 0
0 0 0
0.56466 1.03445 0
0.157511 -0.582188 0
-0.0827994 -0.883579 0
0.56466 1.03445 0
-0.791239 0.936315 0
0 0 0
0.56466 1.03445 0
0 0 0
0.837596 -0.760849 0
0.56466 1.03445 0
-0.791239 0.936315 0
0.837596 -0.760849 0
-1.04843 -0.677759 0
0 0 0
0.837596 -0.760849 0
0 0 0
0.133955 -0.00636229 0
0.837596 -0.760849 0
-1.04843 -0.677759 0
0.133955 -0.00636229 0
-0.190456 0.145286 0
0 0 0
0.133955 -0.00636229 0
0 0 0
0.241734 0.15461 0
0.133955 -0.00636229 0
-0.190456 0.145286 0
0.241734 0.15461 0
0.0644352 0.406834 0
0.215189 -0.0495684 0
0.0976666 -0.0776755 0
0.209934 -0.0810757 0
0.0855654 -0.108846 0
0.0976666 -0.0776755 0
-0.0150487 -0.0876529 0
0.0855654 -0.108846 0
0.0304757 -0.10908 0
0.209934 -0.0810757 0
0.0855654 -0.108846 0
0.163261 -0.0991028 0
0.0726218 -0.158962 0
0.0855654 -0.108846 0
0.0304757 -0.10908 0
0.0726218 -0.158962 0
0.0311447 -0.19736 0
0.163261 -0.0991028 0
0.0726218 -0.158962 0
0.0430554 -0.0113022 0
-0.129088 -0.344036 0
0.0726218 -0.158962 0
0.0311447 -0.19736 0
-0.129088 -0.344036 0
-0.0752465 -0.710867 0
0.0430554 -0.0113022 0
-0.129088 -0.344036 0
-0.19113 -0.0883851 0
-0.501586 -0.463985 0
-0.129088 -0.344036 0
-0.0752465 -0.710867 0
-0.501586 -0.463985 0
-0.024522 -0.50317 0
-0.19113 -0.0883851 0
-0.501586 -0.463985 0
-0.37186 -0.0242946 0
-0.627154 -0.0488154 0
-0.501586 -0.463985 0
-0.024522 -0.50317 0
-0.627154 -0.0488154 0
0.0917276 -0.033798 0
-0.37186 -0.0242946 0
-0.627154 -0.0488154 0
-0.200917 0.115273 0
-0.551785 0.3997 0
-0.627154 -0.0488154 0
0.0917276 -0.033798 0
-0.551785 0.3997 0
0.0893894 0.471803 0
-0.200917 0.115273 0