# vtk DataFile Version 3.0
#This file was generated by the deal.II library on 2026/3/26 at 11:16:11
ASCII
DATASET UNSTRUCTURED_GRID

POINTS 3648 double
0 0 0
0.214286 0 0
0 0.25 0
0.214286 0.25 0
0 0.25 0
0.214286 0.25 0
0 0.5 0
0.214286 0.5 0
0.214286 0 0
0.428571 0 0
0.214286 0.25 0
0.428571 0.25 0
0.214286 0.25 0
0.428571 0.25 0
0.214286 0.5 0
0.428571 0.5 0
0.428571 0 0
0.642857 0 0
0.428571 0.25 0
0.642857 0.25 0
0.428571 0.25 0
0.642857 0.25 0
0.428571 0.5 0
0.642857 0.5 0
0.428571 0.5 0
0.642857 0.5 0
0.428571 0.75 0
0.642857 0.75 0
0.642857 0 0
0.857143 0 0
0.642857 0.25 0
0.857143 0.25 0
0.642857 0.25 0
0.857143 0.25 0
0.642857 0.5 0
0.857143 0.5 0
0.642857 0.5 0
0.857143 0.5 0
0.642857 0.75 0
0.857143 0.75 0
0.857143 0 0
1.07143 0 0
0.857143 0.25 0
1.07143 0.25 0
0.857143 0.25 0
1.07143 0.25 0
0.857143 0.5 0
1.07143 0.5 0
0.857143 0.5 0
1.07143 0.5 0
0.857143 0.75 0
1.07143 0.75 0
1.07143 0 0
1.28571 0 0
1.07143 0.25 0
1.28571 0.25 0
1.07143 0.25 0
1.28571 0.25 0
1.07143 0.5 0
1.28571 0.5 0
1.07143 0.5 0
1.28571 0.5 0
1.07143 0.75 0
1.28571 0.75 0
1.28571 0 0
1.5 0 0
1.28571 0.25 0
1.5 0.25 0
1.28571 0.25 0
1.5 0.25 0
1.28571 0.5 0
1.5 0.5 0
1.5 0 0
1.71429 0 0
1.5 0.25 0
1.71429 0.25 0
1.5 0.25 0
1.71429 0.25 0
1.5 0.5 0
1.71429 0.5 0
1.71429 0 0
1.92857 0 0
1.71429 0.25 0
1.92857 0.25 0
1.71429 0.25 0
1.92857 0.25 0
1.71429 0.5 0
1.92857 0.5 0
1.92857 0 0
2.14286 0 0
1.92857 0.25 0
2.14286 0.25 0
1.92857 0.25 0
2.14286 0.25 0
1.92857 0.5 0
2.14286 0.5 0
0 3 0
0 2.75 0
0.214286 3 0
0.214286 2.75 0
0.214286 3 0
0.214286 2.75 0
0.428571 3 0
0.428571 2.75 0
0.428571 3 0
0.428571 2.75 0
0.642857 3 0
0.642857 2.75 0
0.642857 3 0
0.642857 2.75 0
0.857143 3 0
0.857143 2.75 0
0.857143 3 0
0.857143 2.75 0
1.07143 3 0
1.07143 2.75 0
1.07143 3 0
1.07143 2.75 0
1.28571 3 0
1.28571 2.75 0
1.28571 3 0
1.28571 2.75 0
1.5 3 0
1.5 2.75 0
1.5 3 0
1.5 2.75 0
1.71429 3 0
1.71429 2.75 0
1.71429 3 0
1.71429 2.75 0
1.92857 3 0
1.92857 2.75 0
1.92857 3 0
1.92857 2.75 0
2.14286 3 0
2.14286 2.75 0
0 2.75 0
0 2.5 0
0.214286 2.75 0
0.214286 2.5 0
0.214286 2.75 0
0.214286 2.5 0
0.428571 2.75 0
0.428571 2.5 0
0.428571 2.75 0
0.428571 2.5 0
0.642857 2.75 0
0.642857 2.5 0
0.642857 2.75 0
0.642857 2.5 0
0.857143 2.75 0
0.857143 2.5 0
0.857143 2.75 0
0.857143 2.5 0
1.07143 2.75 0
1.07143 2.5 0
1.07143 2.75 0
1.07143 2.5 0
1.28571 2.75 0
1.28571 2.5 0
1.28571 2.75 0
1.28571 2.5 0
1.5 2.75 0
1.5 2.5 0
1.5 2.75 0
1.5 2.5 0
1.71429 2.75 0
1.71429 2.5 0
1.71429 2.75 0
1.71429 2.5 0
1.92857 2.75 0
1.92857 2.5 0
1.92857 2.75 0
1.92857 2.5 0
2.14286 2.75 0
2.14286 2.5 0
0.428571 2.5 0
0.428571 2.25 0
0.642857 2.5 0
0.642857 2.25 0
0.642857 2.5 0
0.642857 2.25 0
0.857143 2.5 0
0.857143 2.25 0
0.857143 2.5 0
0.857143 2.25 0
1.07143 2.5 0
1.07143 2.25 0
1.07143 2.5 0
1.07143 2.25 0
1.28571 2.5 0
1.28571 2.25 0
0.214286 0.75 0
0.321429 0.75 0
0.214286 0.875 0
0.321429 0.875 0
0.321429 0.75 0
0.428571 0.75 0
0.321429 0.875 0
0.428571 0.875 0
0.214286 0.875 0
0.321429 0.875 0
0.214286 1 0
0.321429 1 0
0.321429 0.875 0
0.428571 0.875 0
0.321429 1 0
0.428571 1 0
0.428571 0.75 0
0.535714 0.75 0
0.428571 0.875 0
0.535714 0.875 0
0.535714 0.75 0
0.642857 0.75 0
0.535714 0.875 0
0.642857 0.875 0
0.428571 0.875 0
0.535714 0.875 0
0.428571 1 0
0.535714 1 0
0.535714 0.875 0
0.642857 0.875 0
0.535714 1 0
0.642857 1 0
0.642857 0.75 0
0.75 0.75 0
0.642857 0.875 0
0.75 0.875 0
0.75 0.75 0
0.857143 0.75 0
0.75 0.875 0
0.857143 0.875 0
0.642857 0.875 0
0.75 0.875 0
0.642857 1 0
0.75 1 0
0.75 0.875 0
0.857143 0.875 0
0.75 1 0
0.857143 1 0
0.857143 0.75 0
0.964286 0.75 0
0.857143 0.875 0
0.964286 0.875 0
0.964286 0.75 0
1.07143 0.75 0
0.964286 0.875 0
1.07143 0.875 0
0.857143 0.875 0
0.964286 0.875 0
0.857143 1 0
0.964286 1 0
0.964286 0.875 0
1.07143 0.875 0
0.964286 1 0
1.07143 1 0
1.07143 0.75 0
1.17857 0.75 0
1.07143 0.875 0
1.17857 0.875 0
1.17857 0.75 0
1.28571 0.75 0
1.17857 0.875 0
1.28571 0.875 0
1.07143 0.875 0
1.17857 0.875 0
1.07143 1 0
1.17857 1 0
1.17857 0.875 0
1.28571 0.875 0
1.17857 1 0
1.28571 1 0
0.214286 2 0
0.214286 1.875 0
0.321429 2 0
0.321429 1.875 0
0.214286 1.875 0
0.214286 1.75 0
0.321429 1.875 0
0.321429 1.75 0
0.321429 2 0
0.321429 1.875 0
0.428571 2 0
0.428571 1.875 0
0.321429 1.875 0
0.321429 1.75 0
0.428571 1.875 0
0.428571 1.75 0
0.428571 2 0
0.428571 1.875 0
0.535714 2 0
0.535714 1.875 0
0.428571 1.875 0
0.428571 1.75 0
0.535714 1.875 0
0.535714 1.75 0
0.535714 2 0
0.535714 1.875 0
0.642857 2 0
0.642857 1.875 0
0.535714 1.875 0
0.535714 1.75 0
0.642857 1.875 0
0.642857 1.75 0
0.642857 2 0
0.642857 1.875 0
0.75 2 0
0.75 1.875 0
0.642857 1.875 0
0.642857 1.75 0
0.75 1.875 0
0.75 1.75 0
0.75 2 0
0.75 1.875 0
0.857143 2 0
0.857143 1.875 0
0.75 1.875 0
0.75 1.75 0
0.857143 1.875 0
0.857143 1.75 0
0.857143 2 0
0.857143 1.875 0
0.964286 2 0
0.964286 1.875 0
0.857143 1.875 0
0.857143 1.75 0
0.964286 1.875 0
0.964286 1.75 0
0.964286 2 0
0.964286 1.875 0
1.07143 2 0
1.07143 1.875 0
0.964286 1.875 0
0.964286 1.75 0
1.07143 1.875 0
1.07143 1.75 0
1.07143 2 0
1.07143 1.875 0
1.17857 2 0
1.17857 1.875 0
1.07143 1.875 0
1.07143 1.75 0
1.17857 1.875 0
1.17857 1.75 0
1.17857 2 0
1.17857 1.875 0
1.28571 2 0
1.28571 1.875 0
1.17857 1.875 0
1.17857 1.75 0
1.28571 1.875 0
1.28571 1.75 0
0.214286 1.25 0
0.214286 1.125 0
0.321429 1.25 0
0.321429 1.125 0
0.214286 1.125 0
0.214286 1 0
0.321429 1.125 0
0.321429 1 0
0.321429 1.25 0
0.321429 1.125 0
0.428571 1.25 0
0.428571 1.125 0
0.321429 1.125 0
0.321429 1 0
0.428571 1.125 0
0.428571 1 0
0.428571 1.25 0
0.428571 1.125 0
0.535714 1.25 0
0.535714 1.125 0
0.428571 1.125 0
0.428571 1 0
0.535714 1.125 0
0.535714 1 0
0.535714 1.25 0
0.535714 1.125 0
0.642857 1.25 0
0.642857 1.125 0
0.535714 1.125 0
0.535714 1 0
0.642857 1.125 0
0.642857 1 0
0.642857 1.25 0
0.642857 1.125 0
0.75 1.25 0
0.75 1.125 0
0.642857 1.125 0
0.642857 1 0
0.75 1.125 0
0.75 1 0
0.75 1.25 0
0.75 1.125 0
0.857143 1.25 0
0.857143 1.125 0
0.75 1.125 0
0.75 1 0
0.857143 1.125 0
0.857143 1 0
0.857143 1.25 0
0.857143 1.125 0
0.964286 1.25 0
0.964286 1.125 0
0.857143 1.125 0
0.857143 1 0
0.964286 1.125 0
0.964286 1 0
0.964286 1.25 0
0.964286 1.125 0
1.07143 1.25 0
1.07143 1.125 0
0.964286 1.125 0
0.964286 1 0
1.07143 1.125 0
1.07143 1 0
1.07143 1.25 0
1.07143 1.125 0
1.17857 1.25 0
1.17857 1.125 0
1.07143 1.125 0
1.07143 1 0
1.17857 1.125 0
1.17857 1 0
1.17857 1.25 0
1.17857 1.125 0
1.28571 1.25 0
1.28571 1.125 0
1.17857 1.125 0
1.17857 1 0
1.28571 1.125 0
1.28571 1 0
0.214286 2.25 0
0.214286 2.125 0
0.321429 2.25 0
0.321429 2.125 0
0.214286 2.125 0
0.214286 2 0
0.321429 2.125 0
0.321429 2 0
0.321429 2.25 0
0.321429 2.125 0
0.428571 2.25 0
0.428571 2.125 0
0.321429 2.125 0
0.321429 2 0
0.428571 2.125 0
0.428571 2 0
0.428571 2.25 0
0.428571 2.125 0
0.535714 2.25 0
0.535714 2.125 0
0.428571 2.125 0
0.428571 2 0
0.535714 2.125 0
0.535714 2 0
0.535714 2.25 0
0.535714 2.125 0
0.642857 2.25 0
0.642857 2.125 0
0.535714 2.125 0
0.535714 2 0
0.642857 2.125 0
0.642857 2 0
0.642857 2.25 0
0.642857 2.125 0
0.75 2.25 0
0.75 2.125 0
0.642857 2.125 0
0.642857 2 0
0.75 2.125 0
0.75 2 0
0.75 2.25 0
0.75 2.125 0
0.857143 2.25 0
0.857143 2.125 0
0.75 2.125 0
0.75 2 0
0.857143 2.125 0
0.857143 2 0
0.857143 2.25 0
0.857143 2.125 0
0.964286 2.25 0
0.964286 2.125 0
0.857143 2.125 0
0.857143 2 0
0.964286 2.125 0
0.964286 2 0
0.964286 2.25 0
0.964286 2.125 0
1.07143 2.25 0
1.07143 2.125 0
0.964286 2.125 0
0.964286 2 0
1.07143 2.125 0
1.07143 2 0
1.07143 2.25 0
1.07143 2.125 0
1.17857 2.25 0
1.17857 2.125 0
1.07143 2.125 0
1.07143 2 0
1.17857 2.125 0
1.17857 2 0
1.17857 2.25 0
1.17857 2.125 0
1.28571 2.25 0
1.28571 2.125 0
1.17857 2.125 0
1.17857 2 0
1.28571 2.125 0
1.28571 2 0
0 0.5 0
0.107143 0.5 0
0 0.625 0
0.107143 0.625 0
0.107143 0.5 0
0.214286 0.5 0
0.107143 0.625 0
0.214286 0.625 0
0 0.625 0
0.107143 0.625 0
0 0.75 0
0.107143 0.75 0
0.107143 0.625 0
0.214286 0.625 0
0.107143 0.75 0
0.214286 0.75 0
0.214286 0.5 0
0.321429 0.5 0
0.214286 0.625 0
0.321429 0.625 0
0.321429 0.5 0
0.428571 0.5 0
0.321429 0.625 0
0.428571 0.625 0
0.214286 0.625 0
0.321429 0.625 0
0.214286 0.75 0
0.321429 0.75 0
0.321429 0.625 0
0.428571 0.625 0
0.321429 0.75 0
0.428571 0.75 0
1.28571 0.5 0
1.39286 0.5 0
1.28571 0.625 0
1.39286 0.625 0
1.39286 0.5 0
1.5 0.5 0
1.39286 0.625 0
1.5 0.625 0
1.28571 0.625 0
1.39286 0.625 0
1.28571 0.75 0
1.39286 0.75 0
1.39286 0.625 0
1.5 0.625 0
1.39286 0.75 0
1.5 0.75 0
1.28571 0.75 0
1.39286 0.75 0
1.28571 0.875 0
1.39286 0.875 0
1.39286 0.75 0
1.5 0.75 0
1.39286 0.875 0
1.5 0.875 0
1.28571 0.875 0
1.39286 0.875 0
1.28571 1 0
1.39286 1 0
1.39286 0.875 0
1.5 0.875 0
1.39286 1 0
1.5 1 0
1.5 0.5 0
1.60714 0.5 0
1.5 0.625 0
1.60714 0.625 0
1.60714 0.5 0
1.71429 0.5 0
1.60714 0.625 0
1.71429 0.625 0
1.5 0.625 0
1.60714 0.625 0
1.5 0.75 0
1.60714 0.75 0
1.60714 0.625 0
1.71429 0.625 0
1.60714 0.75 0
1.71429 0.75 0
1.71429 0.5 0
1.82143 0.5 0
1.71429 0.625 0
1.82143 0.625 0
1.82143 0.5 0
1.92857 0.5 0
1.82143 0.625 0
1.92857 0.625 0
1.71429 0.625 0
1.82143 0.625 0
1.71429 0.75 0
1.82143 0.75 0
1.82143 0.625 0
1.92857 0.625 0
1.82143 0.75 0
1.92857 0.75 0
1.92857 0.5 0
2.03571 0.5 0
1.92857 0.625 0
2.03571 0.625 0
2.03571 0.5 0
2.14286 0.5 0
2.03571 0.625 0
2.14286 0.625 0
1.92857 0.625 0
2.03571 0.625 0
1.92857 0.75 0
2.03571 0.75 0
2.03571 0.625 0
2.14286 0.625 0
2.03571 0.75 0
2.14286 0.75 0
2.14286 0 0
2.25 0 0
2.14286 0.125 0
2.25 0.125 0
2.25 0 0
2.35714 0 0
2.25 0.125 0
2.35714 0.125 0
2.14286 0.125 0
2.25 0.125 0
2.14286 0.25 0
2.25 0.25 0
2.25 0.125 0
2.35714 0.125 0
2.25 0.25 0
2.35714 0.25 0
2.14286 0.25 0
2.25 0.25 0
2.14286 0.375 0
2.25 0.375 0
2.25 0.25 0
2.35714 0.25 0
2.25 0.375 0
2.35714 0.375 0
2.14286 0.375 0
2.25 0.375 0
2.14286 0.5 0
2.25 0.5 0
2.25 0.375 0
2.35714 0.375 0
2.25 0.5 0
2.35714 0.5 0
2.14286 0.5 0
2.25 0.5 0
2.14286 0.625 0
2.25 0.625 0
2.25 0.5 0
2.35714 0.5 0
2.25 0.625 0
2.35714 0.625 0
2.14286 0.625 0
2.25 0.625 0
2.14286 0.75 0
2.25 0.75 0
2.25 0.625 0
2.35714 0.625 0
2.25 0.75 0
2.35714 0.75 0
2.35714 0 0
2.46429 0 0
[...]
POINT_DATA 3648
VECTORS velocity double
0 0 0
0 0 0
0 0 0
-0.0115462 0.0129936 0
0 0 0
-0.0115462 0.0129936 0
0 0 0
-0.0015933 0.0284746 0
0 0 0
0 0 0
-0.0115462 0.0129936 0
-0.0343618 0.0134037 0
-0.0115462 0.0129936 0
-0.0343618 0.0134037 0
-0.0015933 0.0284746 0
-0.00180883 0.0251526 0
0 0 0
0 0 0
-0.0343618 0.0134037 0
-0.0525068 0.00815779 0
-0.0343618 0.0134037 0
-0.0525068 0.00815779 0
-0.00180883 0.0251526 0
-0.00275293 0.0187259 0
-0.00180883 0.0251526 0
-0.00275293 0.0187259 0
0.020667 0.0159685 0
0.0359362 0.011729 0
0 0 0
0 0 0
-0.0525068 0.00815779 0
-0.0588509 -0.000421925 0
-0.0525068 0.00815779 0
-0.0588509 -0.000421925 0
-0.00275293 0.0187259 0
0.0031746 -0.0115815 0
-0.00275293 0.0187259 0
0.0031746 -0.0115815 0
0.0359362 0.011729 0
0.0349815 -0.0102818 0
0 0 0
0 0 0
-0.0588509 -0.000421925 0
-0.0486668 -0.011132 0
-0.0588509 -0.000421925 0
-0.0486668 -0.011132 0
0.0031746 -0.0115815 0
0.00713439 -0.016328 0
0.0031746 -0.0115815 0
0.00713439 -0.016328 0
0.0349815 -0.0102818 0
0.0177995 -0.00124632 0
0 0 0
0 0 0
-0.0486668 -0.011132 0
-0.00777343 -0.0388484 0
-0.0486668 -0.011132 0
-0.00777343 -0.0388484 0
0.00713439 -0.016328 0
-0.020172 -0.0496651 0
0.00713439 -0.016328 0
-0.020172 -0.0496651 0
0.0177995 -0.00124632 0
0.00841557 -0.0225379 0
0 0 0
0 0 0
-0.00777343 -0.0388484 0
0.0724742 -0.0559199 0
-0.00777343 -0.0388484 0
0.0724742 -0.0559199 0
-0.020172 -0.0496651 0
-0.0671373 -0.0821232 0
0 0 0
0 0 0
0.0724742 -0.0559199 0
0.0815634 0.0456511 0
0.0724742 -0.0559199 0
0.0815634 0.0456511 0
-0.0671373 -0.0821232 0
-0.0660486 0.0576965 0
0 0 0
0 0 0
0.0815634 0.0456511 0
0.0279288 0.0166924 0
0.0815634 0.0456511 0
0.0279288 0.0166924 0
-0.0660486 0.0576965 0
-0.0422683 0.0402679 0
0 0 0
0 0 0
0.0279288 0.0166924 0
-0.0105526 0.026986 0
0.0279288 0.0166924 0
-0.0105526 0.026986 0
-0.0422683 0.0402679 0
-0.0117048 0.0122122 0
0 0 0
0 0 0
0 0 0
-0.0116438 -0.0131019 0
0 0 0
-0.0116438 -0.0131019 0
0 0 0
-0.034608 -0.013465 0
0 0 0
-0.034608 -0.013465 0
0 0 0
-0.052724 -0.00807261 0
0 0 0
-0.052724 -0.00807261 0
0 0 0
-0.0588947 0.000529285 0
0 0 0
-0.0588947 0.000529285 0
0 0 0
-0.0486377 0.0111128 0
0 0 0
-0.0486377 0.0111128 0
0 0 0
-0.00768532 0.0389558 0
0 0 0
-0.00768532 0.0389558 0
0 0 0
0.0726046 0.0558653 0
0 0 0
0.0726046 0.0558653 0
0 0 0
0.0816464 -0.0456408 0
0 0 0
0.0816464 -0.0456408 0
0 0 0
0.0280686 -0.016648 0
0 0 0
0.0280686 -0.016648 0
0 0 0
-0.010469 -0.0270883 0
0 0 0
0 0 0
-0.0116438 -0.0131019 0
-0.00160892 -0.028719 0
-0.0116438 -0.0131019 0
-0.00160892 -0.028719 0
-0.034608 -0.013465 0
-0.00178966 -0.0252153 0
-0.034608 -0.013465 0
-0.00178966 -0.0252153 0
-0.052724 -0.00807261 0
-0.00268894 -0.0185506 0
-0.052724 -0.00807261 0
-0.00268894 -0.0185506 0
-0.0588947 0.000529285 0
0.00328513 0.0118662 0
-0.0588947 0.000529285 0
0.00328513 0.0118662 0
-0.0486377 0.0111128 0
0.00730847 0.016286 0
-0.0486377 0.0111128 0
0.00730847 0.016286 0
-0.00768532 0.0389558 0
-0.0201607 0.0496728 0
-0.00768532 0.0389558 0
-0.0201607 0.0496728 0
0.0726046 0.0558653 0
-0.0671754 0.0821366 0
0.0726046 0.0558653 0
-0.0671754 0.0821366 0
0.0816464 -0.0456408 0
-0.0660303 -0.05772 0
0.0816464 -0.0456408 0
-0.0660303 -0.05772 0
0.0280686 -0.016648 0
-0.0422755 -0.0401618 0
0.0280686 -0.016648 0
-0.0422755 -0.0401618 0
-0.010469 -0.0270883 0
-0.0117145 -0.0124357 0
-0.00178966 -0.0252153 0
0.0208165 -0.0160428 0
-0.00268894 -0.0185506 0
0.036023 -0.0115637 0
-0.00268894 -0.0185506 0
0.036023 -0.0115637 0
0.00328513 0.0118662 0
0.034933 0.0104596 0
0.00328513 0.0118662 0
0.034933 0.0104596 0
0.00730847 0.016286 0
0.0175877 0.00117656 0
0.00730847 0.016286 0
0.0175877 0.00117656 0
-0.0201607 0.0496728 0
0.00827966 0.0224797 0
0.00659485 0.0210773 0
0.0152675 0.0227678 0
0.00342805 0.011775 0
0.0106771 0.013348 0
0.0152675 0.0227678 0
0.020667 0.0159685 0
0.0106771 0.013348 0
0.0195639 0.00890931 0
0.00342805 0.011775 0
0.0106771 0.013348 0
0.0520807 -0.0033751 0
0.0741686 -0.00501734 0
0.0106771 0.013348 0
0.0195639 0.00890931 0
0.0741686 -0.00501734 0
0.0930935 -0.00490391 0
0.020667 0.0159685 0
0.0277726 0.0133639 0
0.0195639 0.00890931 0
0.0249875 0.00605523 0
0.0277726 0.0133639 0
0.0359362 0.011729 0
0.0249875 0.00605523 0
0.0297852 0.00425528 0
0.0195639 0.00890931 0
0.0249875 0.00605523 0
0.0930935 -0.00490391 0
0.109467 -0.00575733 0
0.0249875 0.00605523 0
0.0297852 0.00425528 0
0.109467 -0.00575733 0
0.12341 -0.00634365 0
0.0359362 0.011729 0
0.0399998 0.00158655 0
0.0297852 0.00425528 0
0.0332259 0.000815141 0
0.0399998 0.00158655 0
0.0349815 -0.0102818 0
0.0332259 0.000815141 0
0.0329305 -0.00265572 0
0.0297852 0.00425528 0
0.0332259 0.000815141 0
0.12341 -0.00634365 0
0.135562 -0.00748014 0
0.0332259 0.000815141 0
0.0329305 -0.00265572 0
0.135562 -0.00748014 0
0.146451 -0.00750125 0
0.0349815 -0.0102818 0
0.0259607 -0.00686245 0
0.0329305 -0.00265572 0
0.0318942 -0.00237433 0
0.0259607 -0.00686245 0
0.0177995 -0.00124632 0
0.0318942 -0.00237433 0
0.0356303 -0.000329034 0
0.0329305 -0.00265572 0
0.0318942 -0.00237433 0
0.146451 -0.00750125 0
0.156136 -0.00854926 0
0.0318942 -0.00237433 0
0.0356303 -0.000329034 0
0.156136 -0.00854926 0
0.164289 -0.0090016 0
0.0177995 -0.00124632 0
0.0115042 -0.0102304 0
0.0356303 -0.000329034 0
0.0386394 -0.00698747 0
0.0115042 -0.0102304 0
0.00841557 -0.0225379 0
0.0386394 -0.00698747 0
0.0311561 -0.0129133 0
0.0356303 -0.000329034 0
0.0386394 -0.00698747 0
0.164289 -0.0090016 0
0.171003 -0.0104093 0
0.0386394 -0.00698747 0
0.0311561 -0.0129133 0
0.171003 -0.0104093 0
0.176854 -0.00783332 0
0.052079 0.00338008 0
0.240785 0.0132708 0
0.0741902 0.00501292 0
0.233728 0.0122811 0
0.240785 0.0132708 0
0.157853 0.00658629 0
0.233728 0.0122811 0
0.153736 0.00622904 0
0.0741902 0.00501292 0
0.233728 0.0122811 0
0.09314 0.0049006 0
0.227112 0.0112142 0
0.233728 0.0122811 0
0.153736 0.00622904 0
0.227112 0.0112142 0
0.150077 0.00566818 0
0.09314 0.0049006 0
0.227112 0.0112142 0
0.10954 0.00576329 0
0.220828 0.0102153 0
0.227112 0.0112142 0
0.150077 0.00566818 0
0.220828 0.0102153 0
0.146875 0.00528991 0
0.10954 0.00576329 0
0.220828 0.0102153 0
0.123515 0.00636241 0
0.214783 0.00997451 0
0.220828 0.0102153 0
0.146875 0.00528991 0
0.214783 0.00997451 0
0.143982 0.0051398 0
0.123515 0.00636241 0
0.214783 0.00997451 0
0.135692 0.00751958 0
0.208755 0.00953825 0
0.214783 0.00997451 0
0.143982 0.0051398 0
0.208755 0.00953825 0
0.141355 0.00495405 0
0.135692 0.00751958 0
0.208755 0.00953825 0
0.146603 0.00754122 0
0.202572 0.00948056 0
0.208755 0.00953825 0
0.141355 0.00495405 0
0.202572 0.00948056 0
0.138958 0.00478526 0
0.146603 0.00754122 0
0.202572 0.00948056 0
0.156312 0.00858763 0
0.196214 0.00904263 0
0.202572 0.00948056 0
0.138958 0.00478526 0
0.196214 0.00904263 0
0.136762 0.00456195 0
0.156312 0.00858763 0
0.196214 0.00904263 0
0.164483 0.00903776 0
0.189854 0.00946139 0
0.196214 0.00904263 0
0.136762 0.00456195 0
0.189854 0.00946139 0
0.13467 0.00477133 0
0.164483 0.00903776 0
0.189854 0.00946139 0
0.171208 0.01045 0
0.183388 0.00880999 0
0.189854 0.00946139 0
0.13467 0.00477133 0
0.183388 0.00880999 0
0.132755 0.00411195 0
0.171208 0.01045 0
0.183388 0.00880999 0
0.177064 0.00786215 0
0.176878 0.00760999 0
0.183388 0.00880999 0
0.132755 0.00411195 0
0.176878 0.00760999 0
0.131221 0.0033577 0
0.158098 -0.0065951 0
0.240717 -0.0132688 0
0.153974 -0.00623727 0
0.233682 -0.0122836 0
0.240717 -0.0132688 0
0.0520807 -0.0033751 0
0.233682 -0.0122836 0
0.0741686 -0.00501734 0
0.153974 -0.00623727 0
0.233682 -0.0122836 0
0.150308 -0.0056731 0
0.227084 -0.0112142 0
0.233682 -0.0122836 0
0.0741686 -0.00501734 0
0.227084 -0.0112142 0
0.0930935 -0.00490391 0
0.150308 -0.0056731 0
0.227084 -0.0112142 0
0.147099 -0.00529058 0
0.220819 -0.0102086 0
0.227084 -0.0112142 0
0.0930935 -0.00490391 0
0.220819 -0.0102086 0
0.109467 -0.00575733 0
0.147099 -0.00529058 0
0.220819 -0.0102086 0
0.144201 -0.00513604 0
0.214801 -0.00995628 0
0.220819 -0.0102086 0
0.109467 -0.00575733 0
0.214801 -0.00995628 0
0.12341 -0.00634365 0
0.144201 -0.00513604 0
0.214801 -0.00995628 0
0.141571 -0.0049467 0
0.208807 -0.00951362 0
0.214801 -0.00995628 0
0.12341 -0.00634365 0
0.208807 -0.00951362 0
0.135562 -0.00748014 0
0.141571 -0.0049467 0
0.208807 -0.00951362 0
0.139171 -0.00477673 0
0.202663 -0.00945234 0
0.208807 -0.00951362 0
0.135562 -0.00748014 0
0.202663 -0.00945234 0
0.146451 -0.00750125 0
0.139171 -0.00477673 0
0.202663 -0.00945234 0
0.136969 -0.00455367 0
0.196346 -0.00901874 0
0.202663 -0.00945234 0
0.146451 -0.00750125 0
0.196346 -0.00901874 0
0.156136 -0.00854926 0
0.136969 -0.00455367 0
0.196346 -0.00901874 0
0.134869 -0.00476164 0
0.190024 -0.00943774 0
0.196346 -0.00901874 0
0.156136 -0.00854926 0
0.190024 -0.00943774 0
0.164289 -0.0090016 0
0.134869 -0.00476164 0
0.190024 -0.00943774 0
0.132943 -0.004108 0
0.183593 -0.00879338 0
0.190024 -0.00943774 0
0.164289 -0.0090016 0
0.183593 -0.00879338 0
0.171003 -0.0104093 0
0.132943 -0.004108 0
0.183593 -0.00879338 0
0.131398 -0.00335535 0
0.177118 -0.00759679 0
0.183593 -0.00879338 0
0.171003 -0.0104093 0
0.177118 -0.00759679 0
0.176854 -0.00783332 0
0.00670192 -0.0212618 0
0.00347151 -0.011868 0
0.0154141 -0.0229023 0
0.0108259 -0.013406 0
0.00347151 -0.011868 0
0.052079 0.00338008 0
0.0108259 -0.013406 0
0.0741902 0.00501292 0
0.0154141 -0.0229023 0
0.0108259 -0.013406 0
0.0208165 -0.0160428 0
0.0197834 -0.00897489 0
0.0108259 -0.013406 0
0.0741902 0.00501292 0
0.0197834 -0.00897489 0
0.09314 0.0049006 0
0.0208165 -0.0160428 0
0.0197834 -0.00897489 0
0.0278747 -0.0133198 0
0.0252298 -0.00604894 0
0.0197834 -0.00897489 0
0.09314 0.0049006 0
0.0252298 -0.00604894 0
0.10954 0.00576329 0
0.0278747 -0.0133198 0
0.0252298 -0.00604894 0
0.036023 -0.0115637 0
0.0299385 -0.00417351 0
0.0252298 -0.00604894 0
0.10954 0.00576329 0
0.0299385 -0.00417351 0
0.123515 0.00636241 0
0.036023 -0.0115637 0
0.0299385 -0.00417351 0
0.0400543 -0.00141642 0
0.0332608 -0.000734287 0
0.0299385 -0.00417351 0
0.123515 0.00636241 0
0.0332608 -0.000734287 0
0.135692 0.00751958 0
0.0400543 -0.00141642 0
0.0332608 -0.000734287 0
0.034933 0.0104596 0
0.0328886 0.00271677 0
0.0332608 -0.000734287 0
0.135692 0.00751958 0
0.0328886 0.00271677 0
0.146603 0.00754122 0
0.034933 0.0104596 0
0.0328886 0.00271677 0
0.0258017 0.00692766 0
0.0318211 0.00239802 0
0.0328886 0.00271677 0
0.146603 0.00754122 0
0.0318211 0.00239802 0
0.156312 0.00858763 0
0.0258017 0.00692766 0
0.0318211 0.00239802 0
0.0175877 0.00117656 0
0.0356034 0.000300987 0
0.0318211 0.00239802 0
0.156312 0.00858763 0
0.0356034 0.000300987 0
0.164483 0.00903776 0
0.0175877 0.00117656 0
0.0356034 0.000300987 0
0.0112989 0.0101486 0
0.0386996 0.00697755 0
0.0356034 0.000300987 0
0.164483 0.00903776 0
0.0386996 0.00697755 0
0.171208 0.01045 0
0.0112989 0.0101486 0
0.0386996 0.00697755 0
0.00827966 0.0224797 0
0.0312693 0.0129259 0
0.0386996 0.00697755 0
0.171208 0.01045 0
0.0312693 0.0129259 0
0.177064 0.00786215 0
0 0 0
-0.000359986 0.0145914 0
0 0 0
0.00118367 0.013876 0
-0.000359986 0.0145914 0
-0.0015933 0.0284746 0
0.00118367 0.013876 0
0.00273551 0.0289989 0
0 0 0
0.00118367 0.013876 0
0 0 0
9.25518e-05 0.0126645 0
0.00118367 0.013876 0
0.00273551 0.0289989 0
9.25518e-05 0.0126645 0
0.00659485 0.0210773 0
-0.0015933 0.0284746 0
-0.00248186 0.0267573 0
0.00273551 0.0289989 0
0.00397214 0.0260793 0
-0.00248186 0.0267573 0
-0.00180883 0.0251526 0
0.00397214 0.0260793 0
0.00671464 0.0220554 0
0.00273551 0.0289989 0
0.00397214 0.0260793 0
0.00659485 0.0210773 0
0.0152675 0.0227678 0
0.00397214 0.0260793 0
0.00671464 0.0220554 0
0.0152675 0.0227678 0
0.020667 0.0159685 0
-0.020172 -0.0496651 0
-0.0426825 -0.0675311 0
-0.00940036 -0.0301108 0
-0.0302763 -0.0365308 0
-0.0426825 -0.0675311 0
-0.0671373 -0.0821232 0
-0.0302763 -0.0365308 0
-0.0613844 -0.0486237 0
-0.00940036 -0.0301108 0
-0.0302763 -0.0365308 0
0.00841557 -0.0225379 0
-0.00373446 -0.0051655 0
-0.0302763 -0.0365308 0
-0.0613844 -0.0486237 0
-0.00373446 -0.0051655 0
-0.0375083 -0.00483902 0
0.00841557 -0.0225379 0
-0.00373446 -0.0051655 0
0.0311561 -0.0129133 0
0.0291791 0.0013626 0
-0.00373446 -0.0051655 0
-0.0375083 -0.00483902 0
0.0291791 0.0013626 0
0.0460177 0.00823733 0
0.0311561 -0.0129133 0
0.0291791 0.0013626 0
0.176854 -0.00783332 0
0.181331 -0.00715296 0
0.0291791 0.0013626 0
0.0460177 0.00823733 0
0.181331 -0.00715296 0
0.183051 -0.00478214 0
-0.0671373 -0.0821232 0
-0.0800587 -0.0103141 0
-0.0613844 -0.0486237 0
-0.0756306 -0.0109663 0
-0.0800587 -0.0103141 0
-0.0660486 0.0576965 0
-0.0756306 -0.0109663 0
-0.0622585 0.0259201 0
-0.0613844 -0.0486237 0
-0.0756306 -0.0109663 0
-0.0375083 -0.00483902 0
-0.0427503 -0.0311322 0
-0.0756306 -0.0109663 0
-0.0622585 0.0259201 0
-0.0427503 -0.0311322 0
-0.0386789 0.0249857 0
-0.0660486 0.0576965 0
-0.0458099 0.0483955 0
-0.0622585 0.0259201 0
-0.0478464 0.0396476 0
-0.0458099 0.0483955 0
-0.0422683 0.0402679 0
-0.0478464 0.0396476 0
-0.0328551 0.0273159 0
-0.0622585 0.0259201 0
-0.0478464 0.0396476 0
-0.0386789 0.0249857 0
-0.04211 0.028161 0
-0.0478464 0.0396476 0
-0.0328551 0.0273159 0
-0.04211 0.028161 0
-0.0224349 -0.00155141 0
-0.0422683 0.0402679 0
-0.0373196 0.0271041 0
-0.0328551 0.0273159 0
-0.00166703 -0.00221789 0
-0.0373196 0.0271041 0
-0.0117048 0.0122122 0
-0.00166703 -0.00221789 0
0.0134946 -0.00654025 0
-0.0328551 0.0273159 0
-0.00166703 -0.00221789 0
-0.0224349 -0.00155141 0
-0.0230157 -0.00881021 0
-0.00166703 -0.00221789 0
0.0134946 -0.00654025 0
-0.0230157 -0.00881021 0
-0.0295841 -0.009671 0
0 0 0
0 0 0
-0.00314874 0.00669354 0
-0.0382444 0.034101 0
0 0 0
0 0 0
-0.0382444 0.034101 0
-0.0375715 -0.0337414 0
-0.00314874 0.00669354 0
-0.0382444 0.034101 0
-0.0105526 0.026986 0
0.0125069 0.0277618 0
-0.0382444 0.034101 0
-0.0375715 -0.0337414 0
0.0125069 0.0277618 0
0.014354 -0.0295883 0
-0.0105526 0.026986 0
0.0125069 0.0277618 0
-0.0114161 0.0369328 0
0.0071043 -0.0295949 0
0.0125069 0.0277618 0
0.014354 -0.0295883 0
0.0071043 -0.0295949 0
-0.00361126 0.0373768 0
-0.0114161 0.0369328 0
0.0071043 -0.0295949 0
-0.0117048 0.0122122 0
-0.0063864 -0.0308254 0
0.0071043 -0.0295949 0
-0.00361126 0.0373768 0
-0.0063864 -0.0308254 0
-0.0205959 0.0668131 0
-0.0117048 0.0122122 0
-0.0063864 -0.0308254 0
0.0134946 -0.00654025 0
-0.00998563 0.00865262 0
-0.0063864 -0.0308254 0
-0.0205959 0.0668131 0
-0.00998563 0.00865262 0
-0.0206879 0.0558543 0
0.0134946 -0.00654025 0
-0.00998563 0.00865262 0
-0.0295841 -0.009671 0
-0.0111832 0.0175971 0
-0.00998563 0.00865262 0
-0.0206879 0.0558543 0
-0.0111832 0.0175971 0
0.00996207 0.0349206 0
0 0 0
0 0 0
-0.0375715 -0.0337414 0
-0.0184431 0.0103196 0
0 0 0
0 0 0
-0.0184431 0.0103196 0
-0.0233119 -0.00374497 0
-0.0375715 -0.0337414 0
-0.0184431 0.0103196 0
0.014354 -0.0295883 0
-0.0293737 0.0336892 0
-0.0184431 0.0103196 0
-0.0233119 -0.00374497 0
-0.0293737 0.0336892 0
-0.0442517 -0.00238944 0
0.014354 -0.0295883 0
-0.0293737 0.0336892 0
-0.00361126 0.0373768 0
-0.0283682 0.0464933 0
-0.0293737 0.0336892 0
-0.0442517 -0.00238944 0
-0.0283682 0.0464933 0
-0.0267659 0.00117906 0
-0.00361126 0.0373768 0
-0.0283682 0.0464933 0
-0.0205959 0.0668131 0
-0.00351597 0.0259197 0
-0.0283682 0.0464933 0
-0.0267659 0.00117906 0
-0.00351597 0.0259197 0
0.0179355 -0.00502638 0
-0.0205959 0.0668131 0
-0.00351597 0.0259197 0
-0.0206879 0.0558543 0
-0.0160602 0.0114277 0
-0.00351597 0.0259197 0
0.0179355 -0.00502638 0
-0.0160602 0.0114277 0
-0.0158734 -0.0156211 0
-0.0206879 0.0558543 0
-0.0160602 0.0114277 0
0.00996207 0.0349206 0
0.020644 0.0140827 0
-0.0160602 0.0114277 0
-0.0158734 -0.0156211 0
0.020644 0.0140827 0
0.00595819 -0.00146745 0
0 0 0
0 0 0
-0.0233119 -0.00374497 0
-0.017088 -0.00408919 0
0 0 0
0 0 0
-0.017088 -0.00408919 0
-0.00411819 -0.0107673 0
-0.0233119 -0.00374497 0
-0.017088 -0.00408919 0
-0.0442517 -0.00238944 0
-0.042222 -0.0157599 0
-0.017088 -0.00408919 0
-0.00411819 -0.0107673 0
-0.042222 -0.0157599 0
-0.0286239 -0.029564 0
-0.0442517 -0.00238944 0
-0.042222 -0.0157599 0
-0.0267659 0.00117906 0
-0.0303267 -0.0178932 0
-0.042222 -0.0157599 0
-0.0286239 -0.029564 0
-0.0303267 -0.0178932 0
-0.0309723 -0.0424811 0
-0.0267659 0.00117906 0
-0.0303267 -0.0178932 0
0.0179355 -0.00502638 0
0.0100988 0.00114751 0
-0.0303267 -0.0178932 0
-0.0309723 -0.0424811 0
0.0100988 0.00114751 0
-0.0107953 -0.0364695 0
0.0179355 -0.00502638 0
0.0100988 0.00114751 0
-0.0158734 -0.0156211 0
-0.00400439 0.00700979 0
0.0100988 0.00114751 0
-0.0107953 -0.0364695 0
-0.00400439 0.00700979 0
-0.000681148 -0.0218721 0
-0.0158734 -0.0156211 0
-0.00400439 0.00700979 0
0.00595819 -0.00146745 0
0.00177083 -0.0168061 0
-0.00400439 0.00700979 0
-0.000681148 -0.0218721 0
0.00177083 -0.0168061 0
0.00284437 -0.00340532 0
0 0 0
0 0 0
-0.00411819 -0.0107673 0
0.00263905 0.00290373 0
0 0 0
0 0 0
0.00263905 0.00290373 0
0 0 0
-0.00411819 -0.0107673 0
0.00263905 0.00290373 0
-0.0286239 -0.029564 0
-0.0107639 -0.00686436 0
0.00263905 0.00290373 0
0 0 0
-0.0107639 -0.00686436 0
0 0 0
-0.0286239 -0.029564 0
-0.0107639 -0.00686436 0
-0.0309723 -0.0424811 0
-0.0132887 -0.0354777 0
-0.0107639 -0.00686436 0
0 0 0
-0.0132887 -0.0354777 0
0 0 0
-0.0309723 -0.0424811 0
-0.0132887 -0.0354777 0
-0.0107953 -0.0364695 0
-0.00997792 -0.0629099 0
-0.0132887 -0.0354777 0
0 0 0
-0.00997792 -0.0629099 0
0 0 0
-0.0107953 -0.0364695 0
-0.00997792 -0.0629099 0
-0.000681148 -0.0218721 0
-0.0020582 -0.0770987 0
-0.00997792 -0.0629099 0
0 0 0
-0.0020582 -0.0770987 0
0 0 0
-0.000681148 -0.0218721 0
-0.0020582 -0.0770987 0
0.00284437 -0.00340532 0
-0.00529232 -0.0856825 0
-0.0020582 -0.0770987 0
0 0 0
-0.00529232 -0.0856825 0
0 0 0
0.177064 0.00786215 0
0.176878 0.00760999 0
0.181544 0.00718219 0
0.171402 0.00575764 0
0.176878 0.00760999 0
0.131221 0.0033577 0
0.171402 0.00575764 0
0.130057 0.002612 0
0.181544 0.00718219 0
0.171402 0.00575764 0
0.183256 0.00479704 0
0.168099 0.00375651 0
0.171402 0.00575764 0
0.130057 0.002612 0
0.168099 0.00375651 0
0.128934 0.00184447 0
0.165933 0.00680526 0
0.1073 0.00597917 0
0.161888 0.00665524 0
0.10988 0.00578529 0
0.1073 0.00597917 0
0.227757 3.52449e-06 0
0.10988 0.00578529 0
0.215156 3.3287e-06 0
0.161888 0.00665524 0
0.10988 0.00578529 0
0.157853 0.00658629 0
0.112025 0.00528833 0
0.10988 0.00578529 0
0.215156 3.3287e-06 0
0.112025 0.00528833 0
0.203654 3.30197e-06 0
0.157853 0.00658629 0
0.112025 0.00528833 0
0.153736 0.00622904 0
0.113994 0.00503787 0
0.112025 0.00528833 0
0.203654 3.30197e-06 0
0.113994 0.00503787 0
0.193059 3.30297e-06 0
0.153736 0.00622904 0
0.113994 0.00503787 0
0.150077 0.00566818 0
0.115703 0.00456084 0
0.113994 0.00503787 0
0.193059 3.30297e-06 0
0.115703 0.00456084 0
0.18336 3.95054e-06 0
0.150077 0.00566818 0
0.115703 0.00456084 0
0.146875 0.00528991 0
0.117128 0.00432747 0
0.115703 0.00456084 0
0.18336 3.95054e-06 0
0.117128 0.00432747 0
0.174576 4.59909e-06 0
0.146875 0.00528991 0
0.117128 0.00432747 0
0.143982 0.0051398 0
0.118233 0.00392179 0
0.117128 0.00432747 0
0.174576 4.59909e-06 0
0.118233 0.00392179 0
0.166701 5.23564e-06 0
0.143982 0.0051398 0
0.118233 0.00392179 0
0.141355 0.00495405 0
0.118976 0.0038661 0
0.118233 0.00392179 0
0.166701 5.23564e-06 0
0.118976 0.0038661 0
0.159646 5.91185e-06 0
0.141355 0.00495405 0
0.118976 0.0038661 0
0.138958 0.00478526 0
0.11937 0.00344974 0
0.118976 0.0038661 0
0.159646 5.91185e-06 0
0.11937 0.00344974 0
0.153272 5.93509e-06 0
0.138958 0.00478526 0
0.11937 0.00344974 0
0.136762 0.00456195 0
0.119414 0.0034674 0
0.11937 0.00344974 0
0.153272 5.93509e-06 0
0.119414 0.0034674 0
0.147561 7.10225e-06 0
0.136762 0.00456195 0
0.119414 0.0034674 0
0.13467 0.00477133 0
0.119173 0.00310492 0
0.119414 0.0034674 0
0.147561 7.10225e-06 0
0.119173 0.00310492 0
0.142524 6.81674e-06 0
0.13467 0.00477133 0
0.119173 0.00310492 0
0.132755 0.00411195 0
0.1188 0.00310381 0
0.119173 0.00310492 0
0.142524 6.81674e-06 0
0.1188 0.00310381 0
0.13801 5.09822e-06 0
0.132755 0.00411195 0
0.1188 0.00310381 0
0.131221 0.0033577 0
0.118471 0.00237194 0
0.1188 0.00310381 0
0.13801 5.09822e-06 0
0.118471 0.00237194 0