# vtk DataFile Version 3.0
#This file was generated by the deal.II library on 2026/3/26 at 11:22:13
ASCII
DATASET UNSTRUCTURED_GRID

POINTS 3648 double
0 0 0
0.214286 0 0
0 0.25 0
0.214286 0.25 0
0 0.25 0
0.214286 0.25 0
0 0.5 0
0.214286 0.5 0
0.214286 0 0
0.428571 0 0
0.214286 0.25 0
0.428571 0.25 0
0.214286 0.25 0
0.428571 0.25 0
0.214286 0.5 0
0.428571 0.5 0
0.428571 0 0
0.642857 0 0
0.428571 0.25 0
0.642857 0.25 0
0.428571 0.25 0
0.642857 0.25 0
0.428571 0.5 0
0.642857 0.5 0
0.428571 0.5 0
0.642857 0.5 0
0.428571 0.75 0
0.642857 0.75 0
0.642857 0 0
0.857143 0 0
0.642857 0.25 0
0.857143 0.25 0
0.642857 0.25 0
0.857143 0.25 0
0.642857 0.5 0
0.857143 0.5 0
0.642857 0.5 0
0.857143 0.5 0
0.642857 0.75 0
0.857143 0.75 0
0.857143 0 0
1.07143 0 0
0.857143 0.25 0
1.07143 0.25 0
0.857143 0.25 0
1.07143 0.25 0
0.857143 0.5 0
1.07143 0.5 0
0.857143 0.5 0
1.07143 0.5 0
0.857143 0.75 0
1.07143 0.75 0
1.07143 0 0
1.28571 0 0
1.07143 0.25 0
1.28571 0.25 0
1.07143 0.25 0
1.28571 0.25 0
1.07143 0.5 0
1.28571 0.5 0
1.07143 0.5 0
1.28571 0.5 0
1.07143 0.75 0
1.28571 0.75 0
1.28571 0 0
1.5 0 0
1.28571 0.25 0
1.5 0.25 0
1.28571 0.25 0
1.5 0.25 0
1.28571 0.5 0
1.5 0.5 0
1.5 0 0
1.71429 0 0
1.5 0.25 0
1.71429 0.25 0
1.5 0.25 0
1.71429 0.25 0
1.5 0.5 0
1.71429 0.5 0
1.71429 0 0
1.92857 0 0
1.71429 0.25 0
1.92857 0.25 0
1.71429 0.25 0
1.92857 0.25 0
1.71429 0.5 0
1.92857 0.5 0
1.92857 0 0
2.14286 0 0
1.92857 0.25 0
2.14286 0.25 0
1.92857 0.25 0
2.14286 0.25 0
1.92857 0.5 0
2.14286 0.5 0
0 3 0
0 2.75 0
0.214286 3 0
0.214286 2.75 0
0.214286 3 0
0.214286 2.75 0
0.428571 3 0
0.428571 2.75 0
0.428571 3 0
0.428571 2.75 0
0.642857 3 0
0.642857 2.75 0
0.642857 3 0
0.642857 2.75 0
0.857143 3 0
0.857143 2.75 0
0.857143 3 0
0.857143 2.75 0
1.07143 3 0
1.07143 2.75 0
1.07143 3 0
1.07143 2.75 0
1.28571 3 0
1.28571 2.75 0
1.28571 3 0
1.28571 2.75 0
1.5 3 0
1.5 2.75 0
1.5 3 0
1.5 2.75 0
1.71429 3 0
1.71429 2.75 0
1.71429 3 0
1.71429 2.75 0
1.92857 3 0
1.92857 2.75 0
1.92857 3 0
1.92857 2.75 0
2.14286 3 0
2.14286 2.75 0
0 2.75 0
0 2.5 0
0.214286 2.75 0
0.214286 2.5 0
0.214286 2.75 0
0.214286 2.5 0
0.428571 2.75 0
0.428571 2.5 0
0.428571 2.75 0
0.428571 2.5 0
0.642857 2.75 0
0.642857 2.5 0
0.642857 2.75 0
0.642857 2.5 0
0.857143 2.75 0
0.857143 2.5 0
0.857143 2.75 0
0.857143 2.5 0
1.07143 2.75 0
1.07143 2.5 0
1.07143 2.75 0
1.07143 2.5 0
1.28571 2.75 0
1.28571 2.5 0
1.28571 2.75 0
1.28571 2.5 0
1.5 2.75 0
1.5 2.5 0
1.5 2.75 0
1.5 2.5 0
1.71429 2.75 0
1.71429 2.5 0
1.71429 2.75 0
1.71429 2.5 0
1.92857 2.75 0
1.92857 2.5 0
1.92857 2.75 0
1.92857 2.5 0
2.14286 2.75 0
2.14286 2.5 0
0.428571 2.5 0
0.428571 2.25 0
0.642857 2.5 0
0.642857 2.25 0
0.642857 2.5 0
0.642857 2.25 0
0.857143 2.5 0
0.857143 2.25 0
0.857143 2.5 0
0.857143 2.25 0
1.07143 2.5 0
1.07143 2.25 0
1.07143 2.5 0
1.07143 2.25 0
1.28571 2.5 0
1.28571 2.25 0
0.214286 0.75 0
0.321429 0.75 0
0.214286 0.875 0
0.321429 0.875 0
0.321429 0.75 0
0.428571 0.75 0
0.321429 0.875 0
0.428571 0.875 0
0.214286 0.875 0
0.321429 0.875 0
0.214286 1 0
0.321429 1 0
0.321429 0.875 0
0.428571 0.875 0
0.321429 1 0
0.428571 1 0
0.428571 0.75 0
0.535714 0.75 0
0.428571 0.875 0
0.535714 0.875 0
0.535714 0.75 0
0.642857 0.75 0
0.535714 0.875 0
0.642857 0.875 0
0.428571 0.875 0
0.535714 0.875 0
0.428571 1 0
0.535714 1 0
0.535714 0.875 0
0.642857 0.875 0
0.535714 1 0
0.642857 1 0
0.642857 0.75 0
0.75 0.75 0
0.642857 0.875 0
0.75 0.875 0
0.75 0.75 0
0.857143 0.75 0
0.75 0.875 0
0.857143 0.875 0
0.642857 0.875 0
0.75 0.875 0
0.642857 1 0
0.75 1 0
0.75 0.875 0
0.857143 0.875 0
0.75 1 0
0.857143 1 0
0.857143 0.75 0
0.964286 0.75 0
0.857143 0.875 0
0.964286 0.875 0
0.964286 0.75 0
1.07143 0.75 0
0.964286 0.875 0
1.07143 0.875 0
0.857143 0.875 0
0.964286 0.875 0
0.857143 1 0
0.964286 1 0
0.964286 0.875 0
1.07143 0.875 0
0.964286 1 0
1.07143 1 0
1.07143 0.75 0
1.17857 0.75 0
1.07143 0.875 0
1.17857 0.875 0
1.17857 0.75 0
1.28571 0.75 0
1.17857 0.875 0
1.28571 0.875 0
1.07143 0.875 0
1.17857 0.875 0
1.07143 1 0
1.17857 1 0
1.17857 0.875 0
1.28571 0.875 0
1.17857 1 0
1.28571 1 0
0.214286 2 0
0.214286 1.875 0
0.321429 2 0
0.321429 1.875 0
0.214286 1.875 0
0.214286 1.75 0
0.321429 1.875 0
0.321429 1.75 0
0.321429 2 0
0.321429 1.875 0
0.428571 2 0
0.428571 1.875 0
0.321429 1.875 0
0.321429 1.75 0
0.428571 1.875 0
0.428571 1.75 0
0.428571 2 0
0.428571 1.875 0
0.535714 2 0
0.535714 1.875 0
0.428571 1.875 0
0.428571 1.75 0
0.535714 1.875 0
0.535714 1.75 0
0.535714 2 0
0.535714 1.875 0
0.642857 2 0
0.642857 1.875 0
0.535714 1.875 0
0.535714 1.75 0
0.642857 1.875 0
0.642857 1.75 0
0.642857 2 0
0.642857 1.875 0
0.75 2 0
0.75 1.875 0
0.642857 1.875 0
0.642857 1.75 0
0.75 1.875 0
0.75 1.75 0
0.75 2 0
0.75 1.875 0
0.857143 2 0
0.857143 1.875 0
0.75 1.875 0
0.75 1.75 0
0.857143 1.875 0
0.857143 1.75 0
0.857143 2 0
0.857143 1.875 0
0.964286 2 0
0.964286 1.875 0
0.857143 1.875 0
0.857143 1.75 0
0.964286 1.875 0
0.964286 1.75 0
0.964286 2 0
0.964286 1.875 0
1.07143 2 0
1.07143 1.875 0
0.964286 1.875 0
0.964286 1.75 0
1.07143 1.875 0
1.07143 1.75 0
1.07143 2 0
1.07143 1.875 0
1.17857 2 0
1.17857 1.875 0
1.07143 1.875 0
1.07143 1.75 0
1.17857 1.875 0
1.17857 1.75 0
1.17857 2 0
1.17857 1.875 0
1.28571 2 0
1.28571 1.875 0
1.17857 1.875 0
1.17857 1.75 0
1.28571 1.875 0
1.28571 1.75 0
0.214286 1.25 0
0.214286 1.125 0
0.321429 1.25 0
0.321429 1.125 0
0.214286 1.125 0
0.214286 1 0
0.321429 1.125 0
0.321429 1 0
0.321429 1.25 0
0.321429 1.125 0
0.428571 1.25 0
0.428571 1.125 0
0.321429 1.125 0
0.321429 1 0
0.428571 1.125 0
0.428571 1 0
0.428571 1.25 0
0.428571 1.125 0
0.535714 1.25 0
0.535714 1.125 0
0.428571 1.125 0
0.428571 1 0
0.535714 1.125 0
0.535714 1 0
0.535714 1.25 0
0.535714 1.125 0
0.642857 1.25 0
0.642857 1.125 0
0.535714 1.125 0
0.535714 1 0
0.642857 1.125 0
0.642857 1 0
0.642857 1.25 0
0.642857 1.125 0
0.75 1.25 0
0.75 1.125 0
0.642857 1.125 0
0.642857 1 0
0.75 1.125 0
0.75 1 0
0.75 1.25 0
0.75 1.125 0
0.857143 1.25 0
0.857143 1.125 0
0.75 1.125 0
0.75 1 0
0.857143 1.125 0
0.857143 1 0
0.857143 1.25 0
0.857143 1.125 0
0.964286 1.25 0
0.964286 1.125 0
0.857143 1.125 0
0.857143 1 0
0.964286 1.125 0
0.964286 1 0
0.964286 1.25 0
0.964286 1.125 0
1.07143 1.25 0
1.07143 1.125 0
0.964286 1.125 0
0.964286 1 0
1.07143 1.125 0
1.07143 1 0
1.07143 1.25 0
1.07143 1.125 0
1.17857 1.25 0
1.17857 1.125 0
1.07143 1.125 0
1.07143 1 0
1.17857 1.125 0
1.17857 1 0
1.17857 1.25 0
1.17857 1.125 0
1.28571 1.25 0
1.28571 1.125 0
1.17857 1.125 0
1.17857 1 0
1.28571 1.125 0
1.28571 1 0
0.214286 2.25 0
0.214286 2.125 0
0.321429 2.25 0
0.321429 2.125 0
0.214286 2.125 0
0.214286 2 0
0.321429 2.125 0
0.321429 2 0
0.321429 2.25 0
0.321429 2.125 0
0.428571 2.25 0
0.428571 2.125 0
0.321429 2.125 0
0.321429 2 0
0.428571 2.125 0
0.428571 2 0
0.428571 2.25 0
0.428571 2.125 0
0.535714 2.25 0
0.535714 2.125 0
0.428571 2.125 0
0.428571 2 0
0.535714 2.125 0
0.535714 2 0
0.535714 2.25 0
0.535714 2.125 0
0.642857 2.25 0
0.642857 2.125 0
0.535714 2.125 0
0.535714 2 0
0.642857 2.125 0
0.642857 2 0
0.642857 2.25 0
0.642857 2.125 0
0.75 2.25 0
0.75 2.125 0
0.642857 2.125 0
0.642857 2 0
0.75 2.125 0
0.75 2 0
0.75 2.25 0
0.75 2.125 0
0.857143 2.25 0
0.857143 2.125 0
0.75 2.125 0
0.75 2 0
0.857143 2.125 0
0.857143 2 0
0.857143 2.25 0
0.857143 2.125 0
0.964286 2.25 0
0.964286 2.125 0
0.857143 2.125 0
0.857143 2 0
0.964286 2.125 0
0.964286 2 0
0.964286 2.25 0
0.964286 2.125 0
1.07143 2.25 0
1.07143 2.125 0
0.964286 2.125 0
0.964286 2 0
1.07143 2.125 0
1.07143 2 0
1.07143 2.25 0
1.07143 2.125 0
1.17857 2.25 0
1.17857 2.125 0
1.07143 2.125 0
1.07143 2 0
1.17857 2.125 0
1.17857 2 0
1.17857 2.25 0
1.17857 2.125 0
1.28571 2.25 0
1.28571 2.125 0
1.17857 2.125 0
1.17857 2 0
1.28571 2.125 0
1.28571 2 0
0 0.5 0
0.107143 0.5 0
0 0.625 0
0.107143 0.625 0
0.107143 0.5 0
0.214286 0.5 0
0.107143 0.625 0
0.214286 0.625 0
0 0.625 0
0.107143 0.625 0
0 0.75 0
0.107143 0.75 0
0.107143 0.625 0
0.214286 0.625 0
0.107143 0.75 0
0.214286 0.75 0
0.214286 0.5 0
0.321429 0.5 0
0.214286 0.625 0
0.321429 0.625 0
0.321429 0.5 0
0.428571 0.5 0
0.321429 0.625 0
0.428571 0.625 0
0.214286 0.625 0
0.321429 0.625 0
0.214286 0.75 0
0.321429 0.75 0
0.321429 0.625 0
0.428571 0.625 0
0.321429 0.75 0
0.428571 0.75 0
1.28571 0.5 0
1.39286 0.5 0
1.28571 0.625 0
1.39286 0.625 0
1.39286 0.5 0
1.5 0.5 0
1.39286 0.625 0
1.5 0.625 0
1.28571 0.625 0
1.39286 0.625 0
1.28571 0.75 0
1.39286 0.75 0
1.39286 0.625 0
1.5 0.625 0
1.39286 0.75 0
1.5 0.75 0
1.28571 0.75 0
1.39286 0.75 0
1.28571 0.875 0
1.39286 0.875 0
1.39286 0.75 0
1.5 0.75 0
1.39286 0.875 0
1.5 0.875 0
1.28571 0.875 0
1.39286 0.875 0
1.28571 1 0
1.39286 1 0
1.39286 0.875 0
1.5 0.875 0
1.39286 1 0
1.5 1 0
1.5 0.5 0
1.60714 0.5 0
1.5 0.625 0
1.60714 0.625 0
1.60714 0.5 0
1.71429 0.5 0
1.60714 0.625 0
1.71429 0.625 0
1.5 0.625 0
1.60714 0.625 0
1.5 0.75 0
1.60714 0.75 0
1.60714 0.625 0
1.71429 0.625 0
1.60714 0.75 0
1.71429 0.75 0
1.71429 0.5 0
1.82143 0.5 0
1.71429 0.625 0
1.82143 0.625 0
1.82143 0.5 0
1.92857 0.5 0
1.82143 0.625 0
1.92857 0.625 0
1.71429 0.625 0
1.82143 0.625 0
1.71429 0.75 0
1.82143 0.75 0
1.82143 0.625 0
1.92857 0.625 0
1.82143 0.75 0
1.92857 0.75 0
1.92857 0.5 0
2.03571 0.5 0
1.92857 0.625 0
2.03571 0.625 0
2.03571 0.5 0
2.14286 0.5 0
2.03571 0.625 0
2.14286 0.625 0
1.92857 0.625 0
2.03571 0.625 0
1.92857 0.75 0
2.03571 0.75 0
2.03571 0.625 0
2.14286 0.625 0
2.03571 0.75 0
2.14286 0.75 0
2.14286 0 0
2.25 0 0
2.14286 0.125 0
2.25 0.125 0
2.25 0 0
2.35714 0 0
2.25 0.125 0
2.35714 0.125 0
2.14286 0.125 0
2.25 0.125 0
2.14286 0.25 0
2.25 0.25 0
2.25 0.125 0
2.35714 0.125 0
2.25 0.25 0
2.35714 0.25 0
2.14286 0.25 0
2.25 0.25 0
2.14286 0.375 0
2.25 0.375 0
2.25 0.25 0
2.35714 0.25 0
2.25 0.375 0
2.35714 0.375 0
2.14286 0.375 0
2.25 0.375 0
2.14286 0.5 0
2.25 0.5 0
2.25 0.375 0
2.35714 0.375 0
2.25 0.5 0
2.35714 0.5 0
2.14286 0.5 0
2.25 0.5 0
2.14286 0.625 0
2.25 0.625 0
2.25 0.5 0
2.35714 0.5 0
2.25 0.625 0
2.35714 0.625 0
2.14286 0.625 0
2.25 0.625 0
2.14286 0.75 0
2.25 0.75 0
2.25 0.625 0
2.35714 0.625 0
2.25 0.75 0
2.35714 0.75 0
2.35714 0 0
2.46429 0 0
[...]
POINT_DATA 3648
VECTORS velocity double
0 0 0
0 0 0
0 0 0
-0.0115806 0.0130315 0
0 0 0
-0.0115806 0.0130315 0
0 0 0
-0.00160146 0.0285599 0
0 0 0
0 0 0
-0.0115806 0.0130315 0
-0.0344365 0.0134134 0
-0.0115806 0.0130315 0
-0.0344365 0.0134134 0
-0.00160146 0.0285599 0
-0.00180037 0.0251397 0
0 0 0
0 0 0
-0.0344365 0.0134134 0
-0.0525476 0.00811404 0
-0.0344365 0.0134134 0
-0.0525476 0.00811404 0
-0.00180037 0.0251397 0
-0.00274862 0.0186697 0
-0.00180037 0.0251397 0
-0.00274862 0.0186697 0
0.0206939 0.0159524 0
0.0359523 0.0116962 0
0 0 0
0 0 0
-0.0525476 0.00811404 0
-0.0588184 -0.000466456 0
-0.0525476 0.00811404 0
-0.0588184 -0.000466456 0
-0.00274862 0.0186697 0
0.00319236 -0.0117261 0
-0.00274862 0.0186697 0
0.00319236 -0.0117261 0
0.0359523 0.0116962 0
0.0349296 -0.0103888 0
0 0 0
0 0 0
-0.0588184 -0.000466456 0
-0.0486113 -0.0111148 0
-0.0588184 -0.000466456 0
-0.0486113 -0.0111148 0
0.00319236 -0.0117261 0
0.00720251 -0.0162839 0
0.00319236 -0.0117261 0
0.00720251 -0.0162839 0
0.0349296 -0.0103888 0
0.0176354 -0.00115697 0
0 0 0
0 0 0
-0.0486113 -0.0111148 0
-0.00764281 -0.0389694 0
-0.0486113 -0.0111148 0
-0.00764281 -0.0389694 0
0.00720251 -0.0162839 0
-0.0202376 -0.0497542 0
0.00720251 -0.0162839 0
-0.0202376 -0.0497542 0
0.0176354 -0.00115697 0
0.00830443 -0.0225967 0
0 0 0
0 0 0
-0.00764281 -0.0389694 0
0.0725397 -0.0557151 0
-0.00764281 -0.0389694 0
0.0725397 -0.0557151 0
-0.0202376 -0.0497542 0
-0.0670636 -0.082029 0
0 0 0
0 0 0
0.0725397 -0.0557151 0
0.0815099 0.0455792 0
0.0725397 -0.0557151 0
0.0815099 0.0455792 0
-0.0670636 -0.082029 0
-0.0659166 0.0577704 0
0 0 0
0 0 0
0.0815099 0.0455792 0
0.0279272 0.016715 0
0.0815099 0.0455792 0
0.0279272 0.016715 0
-0.0659166 0.0577704 0
-0.0422097 0.0401946 0
0 0 0
0 0 0
0.0279272 0.016715 0
-0.0105589 0.0269659 0
0.0279272 0.016715 0
-0.0105589 0.0269659 0
-0.0422097 0.0401946 0
-0.0116727 0.0123176 0
0 0 0
0 0 0
0 0 0
-0.0116854 -0.0131474 0
0 0 0
-0.0116854 -0.0131474 0
0 0 0
-0.0347019 -0.0134807 0
0 0 0
-0.0347019 -0.0134807 0
0 0 0
-0.0527878 -0.00802807 0
0 0 0
-0.0527878 -0.00802807 0
0 0 0
-0.0588807 0.000578252 0
0 0 0
-0.0588807 0.000578252 0
0 0 0
-0.0485985 0.0110935 0
0 0 0
-0.0485985 0.0110935 0
0 0 0
-0.00754146 0.0391167 0
0 0 0
-0.00754146 0.0391167 0
0 0 0
0.0726887 0.0556242 0
0 0 0
0.0726887 0.0556242 0
0 0 0
0.0815829 -0.0455637 0
0 0 0
0.0815829 -0.0455637 0
0 0 0
0.0280675 -0.0166663 0
0 0 0
0.0280675 -0.0166663 0
0 0 0
-0.0104793 -0.0270751 0
0 0 0
0 0 0
-0.0116854 -0.0131474 0
-0.00161832 -0.0288219 0
-0.0116854 -0.0131474 0
-0.00161832 -0.0288219 0
-0.0347019 -0.0134807 0
-0.00178048 -0.0252105 0
-0.0347019 -0.0134807 0
-0.00178048 -0.0252105 0
-0.0527878 -0.00802807 0
-0.00268244 -0.0184943 0
-0.0527878 -0.00802807 0
-0.00268244 -0.0184943 0
-0.0588807 0.000578252 0
0.00330924 0.0120278 0
-0.0588807 0.000578252 0
0.00330924 0.0120278 0
-0.0485985 0.0110935 0
0.00740141 0.0162504 0
-0.0485985 0.0110935 0
0.00740141 0.0162504 0
-0.00754146 0.0391167 0
-0.0202413 0.0497786 0
-0.00754146 0.0391167 0
-0.0202413 0.0497786 0
0.0726887 0.0556242 0
-0.0671143 0.0820345 0
0.0726887 0.0556242 0
-0.0671143 0.0820345 0
0.0815829 -0.0455637 0
-0.0658836 -0.0578081 0
0.0815829 -0.0455637 0
-0.0658836 -0.0578081 0
0.0280675 -0.0166663 0
-0.0422082 -0.0400655 0
0.0280675 -0.0166663 0
-0.0422082 -0.0400655 0
-0.0104793 -0.0270751 0
-0.0116753 -0.0125707 0
-0.00178048 -0.0252105 0
0.0208522 -0.0160313 0
-0.00268244 -0.0184943 0
0.0360509 -0.0115295 0
-0.00268244 -0.0184943 0
0.0360509 -0.0115295 0
0.00330924 0.0120278 0
0.0348914 0.0105853 0
0.00330924 0.0120278 0
0.0348914 0.0105853 0
0.00740141 0.0162504 0
0.0174065 0.00108166 0
0.00740141 0.0162504 0
0.0174065 0.00108166 0
-0.0202413 0.0497786 0
0.00817678 0.0225552 0
0.00664296 0.0211385 0
0.0153227 0.0228272 0
0.00345041 0.0117952 0
0.0107474 0.0133849 0
0.0153227 0.0228272 0
0.0206939 0.0159524 0
0.0107474 0.0133849 0
0.0196604 0.00891954 0
0.00345041 0.0117952 0
0.0107474 0.0133849 0
0.0520433 -0.00336536 0
0.0741175 -0.00501006 0
0.0107474 0.0133849 0
0.0196604 0.00891954 0
0.0741175 -0.00501006 0
0.0930348 -0.00488535 0
0.0206939 0.0159524 0
0.0277855 0.0133326 0
0.0196604 0.00891954 0
0.0250618 0.00604003 0
0.0277855 0.0133326 0
0.0359523 0.0116962 0
0.0250618 0.00604003 0
0.0298256 0.00424185 0
0.0196604 0.00891954 0
0.0250618 0.00604003 0
0.0930348 -0.00488535 0
0.109404 -0.00574863 0
0.0250618 0.00604003 0
0.0298256 0.00424185 0
0.109404 -0.00574863 0
0.123341 -0.00633392 0
0.0359523 0.0116962 0
0.0400043 0.00152886 0
0.0298256 0.00424185 0
0.0332341 0.00078846 0
0.0400043 0.00152886 0
0.0349296 -0.0103888 0
0.0332341 0.00078846 0
0.0328961 -0.00267672 0
0.0298256 0.00424185 0
0.0332341 0.00078846 0
0.123341 -0.00633392 0
0.135485 -0.00748152 0
0.0332341 0.00078846 0
0.0328961 -0.00267672 0
0.135485 -0.00748152 0
0.146368 -0.00748629 0
0.0349296 -0.0103888 0
0.0258422 -0.00689302 0
0.0328961 -0.00267672 0
0.0318235 -0.0023735 0
0.0258422 -0.00689302 0
0.0176354 -0.00115697 0
0.0318235 -0.0023735 0
0.0355944 -0.000261183 0
0.0328961 -0.00267672 0
0.0318235 -0.0023735 0
0.146368 -0.00748629 0
0.156049 -0.0085345 0
0.0318235 -0.0023735 0
0.0355944 -0.000261183 0
0.156049 -0.0085345 0
0.164195 -0.00897965 0
0.0176354 -0.00115697 0
0.0113337 -0.0101877 0
0.0355944 -0.000261183 0
0.0386576 -0.00697766 0
0.0113337 -0.0101877 0
0.00830443 -0.0225967 0
0.0386576 -0.00697766 0
0.0311265 -0.0129436 0
0.0355944 -0.000261183 0
0.0386576 -0.00697766 0
0.164195 -0.00897965 0
0.170901 -0.0104043 0
0.0386576 -0.00697766 0
0.0311265 -0.0129436 0
0.170901 -0.0104043 0
0.176753 -0.00779969 0
0.0520334 0.00336771 0
0.240791 0.0132457 0
0.0741243 0.00500234 0
0.233729 0.012254 0
0.240791 0.0132457 0
0.15773 0.00657296 0
0.233729 0.012254 0
0.153641 0.00621788 0
0.0741243 0.00500234 0
0.233729 0.012254 0
0.0930621 0.00487648 0
0.227111 0.01119 0
0.233729 0.012254 0
0.153641 0.00621788 0
0.227111 0.01119 0
0.150009 0.0056563 0
0.0930621 0.00487648 0
0.227111 0.01119 0
0.109454 0.00574954 0
0.220824 0.0101909 0
0.227111 0.01119 0
0.150009 0.0056563 0
0.220824 0.0101909 0
0.146831 0.00528058 0
0.109454 0.00574954 0
0.220824 0.0101909 0
0.123419 0.00634754 0
0.214777 0.00995974 0
0.220824 0.0101909 0
0.146831 0.00528058 0
0.214777 0.00995974 0
0.143959 0.00513277 0
0.123419 0.00634754 0
0.214777 0.00995974 0
0.135586 0.00751666 0
0.208747 0.00952146 0
0.214777 0.00995974 0
0.143959 0.00513277 0
0.208747 0.00952146 0
0.141351 0.00494824 0
0.135586 0.00751666 0
0.208747 0.00952146 0
0.146488 0.00752021 0
0.202562 0.00946497 0
0.208747 0.00952146 0
0.141351 0.00494824 0
0.202562 0.00946497 0
0.138971 0.00477702 0
0.146488 0.00752021 0
0.202562 0.00946497 0
0.156192 0.00856736 0
0.196208 0.00901825 0
0.202562 0.00946497 0
0.138971 0.00477702 0
0.196208 0.00901825 0
0.13679 0.00455341 0
0.156192 0.00856736 0
0.196208 0.00901825 0
0.164354 0.00901034 0
0.189859 0.00944783 0
0.196208 0.00901825 0
0.13679 0.00455341 0
0.189859 0.00944783 0
0.13471 0.00476961 0
0.164354 0.00901034 0
0.189859 0.00944783 0
0.171068 0.0104414 0
0.183408 0.00879195 0
0.189859 0.00944783 0
0.13471 0.00476961 0
0.183408 0.00879195 0
0.132803 0.00410765 0
0.171068 0.0104414 0
0.183408 0.00879195 0
0.176926 0.00782112 0
0.176911 0.00759574 0
0.183408 0.00879195 0
0.132803 0.00410765 0
0.176911 0.00759574 0
0.131276 0.00335245 0
0.157917 -0.00658289 0
0.240703 -0.0132483 0
0.153819 -0.00622715 0
0.23366 -0.0122613 0
0.240703 -0.0132483 0
0.0520433 -0.00336536 0
0.23366 -0.0122613 0
0.0741175 -0.00501006 0
0.153819 -0.00622715 0
0.23366 -0.0122613 0
0.150178 -0.00566256 0
0.227056 -0.0111948 0
0.23366 -0.0122613 0
0.0741175 -0.00501006 0
0.227056 -0.0111948 0
0.0930348 -0.00488535 0
0.150178 -0.00566256 0
0.227056 -0.0111948 0
0.146991 -0.00528232 0
0.220785 -0.010189 0
0.227056 -0.0111948 0
0.0930348 -0.00488535 0
0.220785 -0.010189 0
0.109404 -0.00574863 0
0.146991 -0.00528232 0
0.220785 -0.010189 0
0.144113 -0.00512997 0
0.21476 -0.00994545 0
0.220785 -0.010189 0
0.109404 -0.00574863 0
0.21476 -0.00994545 0
0.123341 -0.00633392 0
0.144113 -0.00512997 0
0.21476 -0.00994545 0
0.1415 -0.00494181 0
0.20876 -0.00950069 0
0.21476 -0.00994545 0
0.123341 -0.00633392 0
0.20876 -0.00950069 0
0.135485 -0.00748152 0
0.1415 -0.00494181 0
0.20876 -0.00950069 0
0.139116 -0.00476984 0
0.20261 -0.00944052 0
0.20876 -0.00950069 0
0.135485 -0.00748152 0
0.20261 -0.00944052 0
0.146368 -0.00748629 0
0.139116 -0.00476984 0
0.20261 -0.00944052 0
0.136929 -0.00454612 0
0.196292 -0.00899828 0
0.20261 -0.00944052 0
0.146368 -0.00748629 0
0.196292 -0.00899828 0
0.156049 -0.0085345 0
0.136929 -0.00454612 0
0.196292 -0.00899828 0
0.13484 -0.00476072 0
0.189976 -0.00942753 0
0.196292 -0.00899828 0
0.156049 -0.0085345 0
0.189976 -0.00942753 0
0.164195 -0.00897965 0
0.13484 -0.00476072 0
0.189976 -0.00942753 0
0.132923 -0.00410474 0
0.183557 -0.00877841 0
0.189976 -0.00942753 0
0.164195 -0.00897965 0
0.183557 -0.00877841 0
0.170901 -0.0104043 0
0.132923 -0.00410474 0
0.183557 -0.00877841 0
0.131385 -0.00335184 0
0.177091 -0.00758603 0
0.183557 -0.00877841 0
0.170901 -0.0104043 0
0.177091 -0.00758603 0
0.176753 -0.00779969 0
0.00675592 -0.021333 0
0.00350029 -0.0118894 0
0.0154793 -0.0229776 0
0.0109124 -0.0134513 0
0.00350029 -0.0118894 0
0.0520334 0.00336771 0
0.0109124 -0.0134513 0
0.0741243 0.00500234 0
0.0154793 -0.0229776 0
0.0109124 -0.0134513 0
0.0208522 -0.0160313 0
0.0199042 -0.00898943 0
0.0109124 -0.0134513 0
0.0741243 0.00500234 0
0.0199042 -0.00898943 0
0.0930621 0.00487648 0
0.0208522 -0.0160313 0
0.0199042 -0.00898943 0
0.0278972 -0.0132892 0
0.0253275 -0.00603453 0
0.0199042 -0.00898943 0
0.0930621 0.00487648 0
0.0253275 -0.00603453 0
0.109454 0.00574954 0
0.0278972 -0.0132892 0
0.0253275 -0.00603453 0
0.0360509 -0.0115295 0
0.0299982 -0.00416029 0
0.0253275 -0.00603453 0
0.109454 0.00574954 0
0.0299982 -0.00416029 0
0.123419 0.00634754 0
0.0360509 -0.0115295 0
0.0299982 -0.00416029 0
0.0400719 -0.00135026 0
0.0332813 -0.000704512 0
0.0299982 -0.00416029 0
0.123419 0.00634754 0
0.0332813 -0.000704512 0
0.135586 0.00751666 0
0.0400719 -0.00135026 0
0.0332813 -0.000704512 0
0.0348914 0.0105853 0
0.0328531 0.00274298 0
0.0332813 -0.000704512 0
0.135586 0.00751666 0
0.0328531 0.00274298 0
0.146488 0.00752021 0
0.0348914 0.0105853 0
0.0328531 0.00274298 0
0.0256845 0.00696706 0
0.0317378 0.00239603 0
0.0328531 0.00274298 0
0.146488 0.00752021 0
0.0317378 0.00239603 0
0.156192 0.00856736 0
0.0256845 0.00696706 0
0.0317378 0.00239603 0
0.0174065 0.00108166 0
0.035559 0.000221223 0
0.0317378 0.00239603 0
0.156192 0.00856736 0
0.035559 0.000221223 0
0.164354 0.00901034 0
0.0174065 0.00108166 0
0.035559 0.000221223 0
0.0111058 0.0101085 0
0.0387109 0.00697167 0
0.035559 0.000221223 0
0.164354 0.00901034 0
0.0387109 0.00697167 0
0.171068 0.0104414 0
0.0111058 0.0101085 0
0.0387109 0.00697167 0
0.00817678 0.0225552 0
0.031205 0.0129739 0
0.0387109 0.00697167 0
0.171068 0.0104414 0
0.031205 0.0129739 0
0.176926 0.00782112 0
0 0 0
-0.000362124 0.0146361 0
0 0 0
0.0011965 0.0139082 0
-0.000362124 0.0146361 0
-0.00160146 0.0285599 0
0.0011965 0.0139082 0
0.00276155 0.0290881 0
0 0 0
0.0011965 0.0139082 0
0 0 0
0.000104904 0.0126675 0
0.0011965 0.0139082 0
0.00276155 0.0290881 0
0.000104904 0.0126675 0
0.00664296 0.0211385 0
-0.00160146 0.0285599 0
-0.00248997 0.0267943 0
0.00276155 0.0290881 0
0.00399517 0.0261155 0
-0.00248997 0.0267943 0
-0.00180037 0.0251397 0
0.00399517 0.0261155 0
0.00673451 0.0220269 0
0.00276155 0.0290881 0
0.00399517 0.0261155 0
0.00664296 0.0211385 0
0.0153227 0.0228272 0
0.00399517 0.0261155 0
0.00673451 0.0220269 0
0.0153227 0.0228272 0
0.0206939 0.0159524 0
-0.0202376 -0.0497542 0
-0.0427732 -0.0675409 0
-0.00948515 -0.0301215 0
-0.0303527 -0.036594 0
-0.0427732 -0.0675409 0
-0.0670636 -0.082029 0
-0.0303527 -0.036594 0
-0.0614806 -0.048644 0
-0.00948515 -0.0301215 0
-0.0303527 -0.036594 0
0.00830443 -0.0225967 0
-0.00381275 -0.00522654 0
-0.0303527 -0.036594 0
-0.0614806 -0.048644 0
-0.00381275 -0.00522654 0
-0.0375948 -0.00484262 0
0.00830443 -0.0225967 0
-0.00381275 -0.00522654 0
0.0311265 -0.0129436 0
0.0290617 0.0013331 0
-0.00381275 -0.00522654 0
-0.0375948 -0.00484262 0
0.0290617 0.0013331 0
0.0458782 0.00824259 0
0.0311265 -0.0129436 0
0.0290617 0.0013331 0
0.176753 -0.00779969 0
0.181233 -0.00715245 0
0.0290617 0.0013331 0
0.0458782 0.00824259 0
0.181233 -0.00715245 0
0.182944 -0.00476603 0
-0.0670636 -0.082029 0
-0.0798447 -0.0101972 0
-0.0614806 -0.048644 0
-0.0757504 -0.0108557 0
-0.0798447 -0.0101972 0
-0.0659166 0.0577704 0
-0.0757504 -0.0108557 0
-0.0623125 0.0260169 0
-0.0614806 -0.048644 0
-0.0757504 -0.0108557 0
-0.0375948 -0.00484262 0
-0.0427146 -0.0311452 0
-0.0757504 -0.0108557 0
-0.0623125 0.0260169 0
-0.0427146 -0.0311452 0
-0.0387079 0.0251953 0
-0.0659166 0.0577704 0
-0.0457869 0.048367 0
-0.0623125 0.0260169 0
-0.0478604 0.0396748 0
-0.0457869 0.048367 0
-0.0422097 0.0401946 0
-0.0478604 0.0396748 0
-0.0328746 0.0271548 0
-0.0623125 0.0260169 0
-0.0478604 0.0396748 0
-0.0387079 0.0251953 0
-0.0422515 0.0281606 0
-0.0478604 0.0396748 0
-0.0328746 0.0271548 0
-0.0422515 0.0281606 0
-0.0225636 -0.00168631 0
-0.0422097 0.0401946 0
-0.0372182 0.0271271 0
-0.0328746 0.0271548 0
-0.00174059 -0.00209891 0
-0.0372182 0.0271271 0
-0.0116727 0.0123176 0
-0.00174059 -0.00209891 0
0.0134983 -0.00653717 0
-0.0328746 0.0271548 0
-0.00174059 -0.00209891 0
-0.0225636 -0.00168631 0
-0.0230944 -0.00871855 0
-0.00174059 -0.00209891 0
0.0134983 -0.00653717 0
-0.0230944 -0.00871855 0
-0.0295521 -0.00985589 0
0 0 0
0 0 0
-0.00315112 0.006688 0
-0.038244 0.0341011 0
0 0 0
0 0 0
-0.038244 0.0341011 0
-0.03757 -0.033743 0
-0.00315112 0.006688 0
-0.038244 0.0341011 0
-0.0105589 0.0269659 0
0.0125545 0.0277054 0
-0.038244 0.0341011 0
-0.03757 -0.033743 0
0.0125545 0.0277054 0
0.0144848 -0.0296298 0
-0.0105589 0.0269659 0
0.0125545 0.0277054 0
-0.0113929 0.0369346 0
0.00710425 -0.0297114 0
0.0125545 0.0277054 0
0.0144848 -0.0296298 0
0.00710425 -0.0297114 0
-0.0036436 0.037337 0
-0.0113929 0.0369346 0
0.00710425 -0.0297114 0
-0.0116727 0.0123176 0
-0.00644682 -0.0309101 0
0.00710425 -0.0297114 0
-0.0036436 0.037337 0
-0.00644682 -0.0309101 0
-0.0206839 0.0668134 0
-0.0116727 0.0123176 0
-0.00644682 -0.0309101 0
0.0134983 -0.00653717 0
-0.00989368 0.00867287 0
-0.00644682 -0.0309101 0
-0.0206839 0.0668134 0
-0.00989368 0.00867287 0
-0.0206925 0.0558927 0
0.0134983 -0.00653717 0
-0.00989368 0.00867287 0
-0.0295521 -0.00985589 0
-0.0111298 0.0176773 0
-0.00989368 0.00867287 0
-0.0206925 0.0558927 0
-0.0111298 0.0176773 0
0.00997477 0.0350616 0
0 0 0
0 0 0
-0.03757 -0.033743 0
-0.0184106 0.0102845 0
0 0 0
0 0 0
-0.0184106 0.0102845 0
-0.0232805 -0.00370773 0
-0.03757 -0.033743 0
-0.0184106 0.0102845 0
0.0144848 -0.0296298 0
-0.0293043 0.0337267 0
-0.0184106 0.0102845 0
-0.0232805 -0.00370773 0
-0.0293043 0.0337267 0
-0.04428 -0.00230532 0
0.0144848 -0.0296298 0
-0.0293043 0.0337267 0
-0.0036436 0.037337 0
-0.0284425 0.0466452 0
-0.0293043 0.0337267 0
-0.04428 -0.00230532 0
-0.0284425 0.0466452 0
-0.0267929 0.00121477 0
-0.0036436 0.037337 0
-0.0284425 0.0466452 0
-0.0206839 0.0668134 0
-0.00353201 0.0259965 0
-0.0284425 0.0466452 0
-0.0267929 0.00121477 0
-0.00353201 0.0259965 0
0.0180151 -0.00507767 0
-0.0206839 0.0668134 0
-0.00353201 0.0259965 0
-0.0206925 0.0558927 0
-0.016109 0.0114305 0
-0.00353201 0.0259965 0
0.0180151 -0.00507767 0
-0.016109 0.0114305 0
-0.0159441 -0.015682 0
-0.0206925 0.0558927 0
-0.016109 0.0114305 0
0.00997477 0.0350616 0
0.0205959 0.014105 0
-0.016109 0.0114305 0
-0.0159441 -0.015682 0
0.0205959 0.014105 0
0.00583732 -0.00143244 0
0 0 0
0 0 0
-0.0232805 -0.00370773 0
-0.0170792 -0.00410013 0
0 0 0
0 0 0
-0.0170792 -0.00410013 0
-0.00411954 -0.0107453 0
-0.0232805 -0.00370773 0
-0.0170792 -0.00410013 0
-0.04428 -0.00230532 0
-0.0422847 -0.015752 0
-0.0170792 -0.00410013 0
-0.00411954 -0.0107453 0
-0.0422847 -0.015752 0
-0.028675 -0.029563 0
-0.04428 -0.00230532 0
-0.0422847 -0.015752 0
-0.0267929 0.00121477 0
-0.0303282 -0.0178283 0
-0.0422847 -0.015752 0
-0.028675 -0.029563 0
-0.0303282 -0.0178283 0
-0.0310082 -0.0425089 0
-0.0267929 0.00121477 0
-0.0303282 -0.0178283 0
0.0180151 -0.00507767 0
0.0101791 0.00126443 0
-0.0303282 -0.0178283 0
-0.0310082 -0.0425089 0
0.0101791 0.00126443 0
-0.010756 -0.0364623 0
0.0180151 -0.00507767 0
0.0101791 0.00126443 0
-0.0159441 -0.015682 0
-0.00405496 0.00710888 0
0.0101791 0.00126443 0
-0.010756 -0.0364623 0
-0.00405496 0.00710888 0
-0.000695738 -0.0218416 0
-0.0159441 -0.015682 0
-0.00405496 0.00710888 0
0.00583732 -0.00143244 0
0.00158717 -0.016753 0
-0.00405496 0.00710888 0
-0.000695738 -0.0218416 0
0.00158717 -0.016753 0
0.00278164 -0.00350992 0
0 0 0
0 0 0
-0.00411954 -0.0107453 0
0.00262919 0.00289337 0
0 0 0
0 0 0
0.00262919 0.00289337 0
0 0 0
-0.00411954 -0.0107453 0
0.00262919 0.00289337 0
-0.028675 -0.029563 0
-0.0107712 -0.00689354 0
0.00262919 0.00289337 0
0 0 0
-0.0107712 -0.00689354 0
0 0 0
-0.028675 -0.029563 0
-0.0107712 -0.00689354 0
-0.0310082 -0.0425089 0
-0.0133121 -0.0355417 0
-0.0107712 -0.00689354 0
0 0 0
-0.0133121 -0.0355417 0
0 0 0
-0.0310082 -0.0425089 0
-0.0133121 -0.0355417 0
-0.010756 -0.0364623 0
-0.00996811 -0.0629873 0
-0.0133121 -0.0355417 0
0 0 0
-0.00996811 -0.0629873 0
0 0 0
-0.010756 -0.0364623 0
-0.00996811 -0.0629873 0
-0.000695738 -0.0218416 0
-0.00206642 -0.0771725 0
-0.00996811 -0.0629873 0
0 0 0
-0.00206642 -0.0771725 0
0 0 0
-0.000695738 -0.0218416 0
-0.00206642 -0.0771725 0
0.00278164 -0.00350992 0
-0.00526612 -0.0857308 0
-0.00206642 -0.0771725 0
0 0 0
-0.00526612 -0.0857308 0
0 0 0
0.176926 0.00782112 0
0.176911 0.00759574 0
0.181408 0.00717922 0
0.171446 0.00574814 0
0.176911 0.00759574 0
0.131276 0.00335245 0
0.171446 0.00574814 0
0.130115 0.00261291 0
0.181408 0.00717922 0
0.171446 0.00574814 0
0.183111 0.00477718 0
0.168158 0.00374839 0
0.171446 0.00574814 0
0.130115 0.00261291 0
0.168158 0.00374839 0
0.128992 0.00184407 0
0.165742 0.00678954 0
0.107614 0.00597323 0
0.161733 0.00664082 0
0.110175 0.00577926 0
0.107614 0.00597323 0
0.227586 6.19491e-07 0
0.110175 0.00577926 0
0.21501 5.94816e-07 0
0.161733 0.00664082 0
0.110175 0.00577926 0
0.15773 0.00657296 0
0.112302 0.00528198 0
0.110175 0.00577926 0
0.21501 5.94816e-07 0
0.112302 0.00528198 0
0.203531 8.1089e-07 0
0.15773 0.00657296 0
0.112302 0.00528198 0
0.153641 0.00621788 0
0.114254 0.00503217 0
0.112302 0.00528198 0
0.203531 8.1089e-07 0
0.114254 0.00503217 0
0.192958 1.02259e-06 0
0.153641 0.00621788 0
0.114254 0.00503217 0
0.150009 0.0056563 0
0.115949 0.00455425 0
0.114254 0.00503217 0
0.192958 1.02259e-06 0
0.115949 0.00455425 0
0.18328 1.8461e-06 0
0.150009 0.0056563 0
0.115949 0.00455425 0
0.146831 0.00528058 0
0.117359 0.00432222 0
0.115949 0.00455425 0
0.18328 1.8461e-06 0
0.117359 0.00432222 0
0.174515 2.77039e-06 0
0.146831 0.00528058 0
0.117359 0.00432222 0
0.143959 0.00513277 0
0.11845 0.00391662 0
0.117359 0.00432222 0
0.174515 2.77039e-06 0
0.11845 0.00391662 0
0.166658 3.64975e-06 0
0.143959 0.00513277 0
0.11845 0.00391662 0
0.141351 0.00494824 0
0.119182 0.00386211 0
0.11845 0.00391662 0
0.166658 3.64975e-06 0
0.119182 0.00386211 0
0.15962 4.35545e-06 0
0.141351 0.00494824 0
0.119182 0.00386211 0
0.138971 0.00477702 0
0.119565 0.00344306 0
0.119182 0.00386211 0
0.15962 4.35545e-06 0
0.119565 0.00344306 0
0.15326 4.47978e-06 0
0.138971 0.00477702 0
0.119565 0.00344306 0
0.13679 0.00455341 0
0.1196 0.00346253 0
0.119565 0.00344306 0
0.15326 4.47978e-06 0
0.1196 0.00346253 0
0.147564 5.87777e-06 0
0.13679 0.00455341 0
0.1196 0.00346253 0
0.13471 0.00476961 0
0.119352 0.00310054 0
0.1196 0.00346253 0
0.147564 5.87777e-06 0
0.119352 0.00310054 0
0.142539 5.91258e-06 0
0.13471 0.00476961 0
0.119352 0.00310054 0
0.132803 0.00410765 0
0.118973 0.00309967 0
0.119352 0.00310054 0
0.142539 5.91258e-06 0
0.118973 0.00309967 0
0.138036 3.82181e-06 0
0.132803 0.00410765 0
0.118973 0.00309967 0
0.131276 0.00335245 0
0.118638 0.00236457 0
0.118973 0.00309967 0