# vtk DataFile Version 3.0
#This file was generated by the deal.II library on 2026/3/26 at 11:24:16
ASCII
DATASET UNSTRUCTURED_GRID

POINTS 8784 double
0 0 0
0.214286 0 0
0 0.25 0
0.214286 0.25 0
0 0.25 0
0.214286 0.25 0
0 0.5 0
0.214286 0.5 0
0.214286 0 0
0.428571 0 0
0.214286 0.25 0
0.428571 0.25 0
0.214286 0.25 0
0.428571 0.25 0
0.214286 0.5 0
0.428571 0.5 0
0 3 0
0 2.75 0
0.214286 3 0
0.214286 2.75 0
0.214286 3 0
0.214286 2.75 0
0.428571 3 0
0.428571 2.75 0
0 2.75 0
0 2.5 0
0.214286 2.75 0
0.214286 2.5 0
0.214286 2.75 0
0.214286 2.5 0
0.428571 2.75 0
0.428571 2.5 0
0.857143 0.75 0
0.964286 0.75 0
0.857143 0.875 0
0.964286 0.875 0
0.964286 0.75 0
1.07143 0.75 0
0.964286 0.875 0
1.07143 0.875 0
0.857143 0.875 0
0.964286 0.875 0
0.857143 1 0
0.964286 1 0
0.964286 0.875 0
1.07143 0.875 0
0.964286 1 0
1.07143 1 0
1.07143 0.75 0
1.17857 0.75 0
1.07143 0.875 0
1.17857 0.875 0
1.17857 0.75 0
1.28571 0.75 0
1.17857 0.875 0
1.28571 0.875 0
1.07143 0.875 0
1.17857 0.875 0
1.07143 1 0
1.17857 1 0
1.17857 0.875 0
1.28571 0.875 0
1.17857 1 0
1.28571 1 0
0.857143 2 0
0.857143 1.875 0
0.964286 2 0
0.964286 1.875 0
0.857143 1.875 0
0.857143 1.75 0
0.964286 1.875 0
0.964286 1.75 0
0.964286 2 0
0.964286 1.875 0
1.07143 2 0
1.07143 1.875 0
0.964286 1.875 0
0.964286 1.75 0
1.07143 1.875 0
1.07143 1.75 0
1.07143 2 0
1.07143 1.875 0
1.17857 2 0
1.17857 1.875 0
1.07143 1.875 0
1.07143 1.75 0
1.17857 1.875 0
1.17857 1.75 0
1.17857 2 0
1.17857 1.875 0
1.28571 2 0
1.28571 1.875 0
1.17857 1.875 0
1.17857 1.75 0
1.28571 1.875 0
1.28571 1.75 0
0.857143 1.25 0
0.857143 1.125 0
0.964286 1.25 0
0.964286 1.125 0
0.857143 1.125 0
0.857143 1 0
0.964286 1.125 0
0.964286 1 0
0.964286 1.25 0
0.964286 1.125 0
1.07143 1.25 0
1.07143 1.125 0
0.964286 1.125 0
0.964286 1 0
1.07143 1.125 0
1.07143 1 0
1.07143 1.25 0
1.07143 1.125 0
1.17857 1.25 0
1.17857 1.125 0
1.07143 1.125 0
1.07143 1 0
1.17857 1.125 0
1.17857 1 0
1.17857 1.25 0
1.17857 1.125 0
1.28571 1.25 0
1.28571 1.125 0
1.17857 1.125 0
1.17857 1 0
1.28571 1.125 0
1.28571 1 0
0.857143 2.25 0
0.857143 2.125 0
0.964286 2.25 0
0.964286 2.125 0
0.857143 2.125 0
0.857143 2 0
0.964286 2.125 0
0.964286 2 0
0.964286 2.25 0
0.964286 2.125 0
1.07143 2.25 0
1.07143 2.125 0
0.964286 2.125 0
0.964286 2 0
1.07143 2.125 0
1.07143 2 0
1.07143 2.25 0
1.07143 2.125 0
1.17857 2.25 0
1.17857 2.125 0
1.07143 2.125 0
1.07143 2 0
1.17857 2.125 0
1.17857 2 0
1.17857 2.25 0
1.17857 2.125 0
1.28571 2.25 0
1.28571 2.125 0
1.17857 2.125 0
1.17857 2 0
1.28571 2.125 0
1.28571 2 0
0 0.5 0
0.107143 0.5 0
0 0.625 0
0.107143 0.625 0
0.107143 0.5 0
0.214286 0.5 0
0.107143 0.625 0
0.214286 0.625 0
0 0.625 0
0.107143 0.625 0
0 0.75 0
0.107143 0.75 0
0.107143 0.625 0
0.214286 0.625 0
0.107143 0.75 0
0.214286 0.75 0
0.214286 0.5 0
0.321429 0.5 0
0.214286 0.625 0
0.321429 0.625 0
0.321429 0.5 0
0.428571 0.5 0
0.321429 0.625 0
0.428571 0.625 0
0.214286 0.625 0
0.321429 0.625 0
0.214286 0.75 0
0.321429 0.75 0
0.321429 0.625 0
0.428571 0.625 0
0.321429 0.75 0
0.428571 0.75 0
2.57143 0 0
2.67857 0 0
2.57143 0.125 0
2.67857 0.125 0
2.67857 0 0
2.78571 0 0
2.67857 0.125 0
2.78571 0.125 0
2.57143 0.125 0
2.67857 0.125 0
2.57143 0.25 0
2.67857 0.25 0
2.67857 0.125 0
2.78571 0.125 0
2.67857 0.25 0
2.78571 0.25 0
2.78571 0 0
2.89286 0 0
2.78571 0.125 0
2.89286 0.125 0
2.89286 0 0
3 0 0
2.89286 0.125 0
3 0.125 0
2.78571 0.125 0
2.89286 0.125 0
2.78571 0.25 0
2.89286 0.25 0
2.89286 0.125 0
3 0.125 0
2.89286 0.25 0
3 0.25 0
0.857143 1.75 0
0.857143 1.625 0
0.964286 1.75 0
0.964286 1.625 0
0.857143 1.625 0
0.857143 1.5 0
0.964286 1.625 0
0.964286 1.5 0
0.964286 1.75 0
0.964286 1.625 0
1.07143 1.75 0
1.07143 1.625 0
0.964286 1.625 0
0.964286 1.5 0
1.07143 1.625 0
1.07143 1.5 0
1.07143 1.75 0
1.07143 1.625 0
1.17857 1.75 0
1.17857 1.625 0
1.07143 1.625 0
1.07143 1.5 0
1.17857 1.625 0
1.17857 1.5 0
1.17857 1.75 0
1.17857 1.625 0
1.28571 1.75 0
1.28571 1.625 0
1.17857 1.625 0
1.17857 1.5 0
1.28571 1.625 0
1.28571 1.5 0
1.28571 1.75 0
1.28571 1.625 0
1.39286 1.75 0
1.39286 1.625 0
1.28571 1.625 0
1.28571 1.5 0
1.39286 1.625 0
1.39286 1.5 0
1.39286 1.75 0
1.39286 1.625 0
1.5 1.75 0
1.5 1.625 0
1.39286 1.625 0
1.39286 1.5 0
1.5 1.625 0
1.5 1.5 0
1.5 1.75 0
1.5 1.625 0
1.60714 1.75 0
1.60714 1.625 0
1.5 1.625 0
1.5 1.5 0
1.60714 1.625 0
1.60714 1.5 0
1.60714 1.75 0
1.60714 1.625 0
1.71429 1.75 0
1.71429 1.625 0
1.60714 1.625 0
1.60714 1.5 0
1.71429 1.625 0
1.71429 1.5 0
1.71429 1.75 0
1.71429 1.625 0
1.82143 1.75 0
1.82143 1.625 0
1.71429 1.625 0
1.71429 1.5 0
1.82143 1.625 0
1.82143 1.5 0
1.82143 1.75 0
1.82143 1.625 0
1.92857 1.75 0
1.92857 1.625 0
1.82143 1.625 0
1.82143 1.5 0
1.92857 1.625 0
1.92857 1.5 0
1.92857 1.75 0
1.92857 1.625 0
2.03571 1.75 0
2.03571 1.625 0
1.92857 1.625 0
1.92857 1.5 0
2.03571 1.625 0
2.03571 1.5 0
2.03571 1.75 0
2.03571 1.625 0
2.14286 1.75 0
2.14286 1.625 0
2.03571 1.625 0
2.03571 1.5 0
2.14286 1.625 0
2.14286 1.5 0
2.14286 1.75 0
2.14286 1.625 0
2.25 1.75 0
2.25 1.625 0
2.14286 1.625 0
2.14286 1.5 0
2.25 1.625 0
2.25 1.5 0
2.25 1.75 0
2.25 1.625 0
2.35714 1.75 0
2.35714 1.625 0
2.25 1.625 0
2.25 1.5 0
2.35714 1.625 0
2.35714 1.5 0
1.07143 1.5 0
1.07143 1.375 0
1.17857 1.5 0
1.17857 1.375 0
1.07143 1.375 0
1.07143 1.25 0
1.17857 1.375 0
1.17857 1.25 0
1.17857 1.5 0
1.17857 1.375 0
1.28571 1.5 0
1.28571 1.375 0
1.17857 1.375 0
1.17857 1.25 0
1.28571 1.375 0
1.28571 1.25 0
1.28571 1.5 0
1.28571 1.375 0
1.39286 1.5 0
1.39286 1.375 0
1.28571 1.375 0
1.28571 1.25 0
1.39286 1.375 0
1.39286 1.25 0
1.39286 1.5 0
1.39286 1.375 0
1.5 1.5 0
1.5 1.375 0
1.39286 1.375 0
1.39286 1.25 0
1.5 1.375 0
1.5 1.25 0
1.5 1.5 0
1.5 1.375 0
1.60714 1.5 0
1.60714 1.375 0
1.5 1.375 0
1.5 1.25 0
1.60714 1.375 0
1.60714 1.25 0
1.60714 1.5 0
1.60714 1.375 0
1.71429 1.5 0
1.71429 1.375 0
1.60714 1.375 0
1.60714 1.25 0
1.71429 1.375 0
1.71429 1.25 0
1.71429 1.5 0
1.71429 1.375 0
1.82143 1.5 0
1.82143 1.375 0
1.71429 1.375 0
1.71429 1.25 0
1.82143 1.375 0
1.82143 1.25 0
1.82143 1.5 0
1.82143 1.375 0
1.92857 1.5 0
1.92857 1.375 0
1.82143 1.375 0
1.82143 1.25 0
1.92857 1.375 0
1.92857 1.25 0
1.92857 1.5 0
1.92857 1.375 0
2.03571 1.5 0
2.03571 1.375 0
1.92857 1.375 0
1.92857 1.25 0
2.03571 1.375 0
2.03571 1.25 0
2.03571 1.5 0
2.03571 1.375 0
2.14286 1.5 0
2.14286 1.375 0
2.03571 1.375 0
2.03571 1.25 0
2.14286 1.375 0
2.14286 1.25 0
2.14286 1.5 0
2.14286 1.375 0
2.25 1.5 0
2.25 1.375 0
2.14286 1.375 0
2.14286 1.25 0
2.25 1.375 0
2.25 1.25 0
2.25 1.5 0
2.25 1.375 0
2.35714 1.5 0
2.35714 1.375 0
2.25 1.375 0
2.25 1.25 0
2.35714 1.375 0
2.35714 1.25 0
2.57143 3 0
2.57143 2.875 0
2.67857 3 0
2.67857 2.875 0
2.57143 2.875 0
2.57143 2.75 0
2.67857 2.875 0
2.67857 2.75 0
2.67857 3 0
2.67857 2.875 0
2.78571 3 0
2.78571 2.875 0
2.67857 2.875 0
2.67857 2.75 0
2.78571 2.875 0
2.78571 2.75 0
2.78571 3 0
2.78571 2.875 0
2.89286 3 0
2.89286 2.875 0
2.78571 2.875 0
2.78571 2.75 0
2.89286 2.875 0
2.89286 2.75 0
2.89286 3 0
2.89286 2.875 0
3 3 0
3 2.875 0
2.89286 2.875 0
2.89286 2.75 0
3 2.875 0
3 2.75 0
0 2.5 0
0 2.375 0
0.107143 2.5 0
0.107143 2.375 0
0 2.375 0
0 2.25 0
0.107143 2.375 0
0.107143 2.25 0
0.107143 2.5 0
0.107143 2.375 0
0.214286 2.5 0
0.214286 2.375 0
0.107143 2.375 0
0.107143 2.25 0
0.214286 2.375 0
0.214286 2.25 0
0.214286 2.5 0
0.214286 2.375 0
0.321429 2.5 0
0.321429 2.375 0
0.214286 2.375 0
0.214286 2.25 0
0.321429 2.375 0
0.321429 2.25 0
0.321429 2.5 0
0.321429 2.375 0
0.428571 2.5 0
0.428571 2.375 0
0.321429 2.375 0
0.321429 2.25 0
0.428571 2.375 0
0.428571 2.25 0
0.428571 0 0
0.535714 0 0
0.428571 0.125 0
0.535714 0.125 0
0.535714 0 0
0.642857 0 0
0.535714 0.125 0
0.642857 0.125 0
0.428571 0.125 0
0.535714 0.125 0
0.428571 0.25 0
0.535714 0.25 0
0.535714 0.125 0
0.642857 0.125 0
0.535714 0.25 0
0.642857 0.25 0
0.428571 0.25 0
0.535714 0.25 0
0.428571 0.375 0
0.535714 0.375 0
0.535714 0.25 0
0.642857 0.25 0
0.535714 0.375 0
0.642857 0.375 0
0.428571 0.375 0
0.535714 0.375 0
0.428571 0.5 0
0.535714 0.5 0
0.535714 0.375 0
0.642857 0.375 0
0.535714 0.5 0
0.642857 0.5 0
0.428571 0.5 0
0.535714 0.5 0
0.428571 0.625 0
0.535714 0.625 0
0.535714 0.5 0
0.642857 0.5 0
0.535714 0.625 0
0.642857 0.625 0
0.428571 0.625 0
0.535714 0.625 0
0.428571 0.75 0
0.535714 0.75 0
0.535714 0.625 0
0.642857 0.625 0
0.535714 0.75 0
0.642857 0.75 0
0.642857 0 0
0.75 0 0
0.642857 0.125 0
0.75 0.125 0
0.75 0 0
0.857143 0 0
0.75 0.125 0
0.857143 0.125 0
0.642857 0.125 0
0.75 0.125 0
0.642857 0.25 0
0.75 0.25 0
0.75 0.125 0
0.857143 0.125 0
0.75 0.25 0
0.857143 0.25 0
0.642857 0.25 0
0.75 0.25 0
0.642857 0.375 0
0.75 0.375 0
0.75 0.25 0
0.857143 0.25 0
0.75 0.375 0
0.857143 0.375 0
0.642857 0.375 0
0.75 0.375 0
0.642857 0.5 0
0.75 0.5 0
0.75 0.375 0
0.857143 0.375 0
0.75 0.5 0
0.857143 0.5 0
0.642857 0.5 0
0.75 0.5 0
0.642857 0.625 0
0.75 0.625 0
0.75 0.5 0
0.857143 0.5 0
0.75 0.625 0
0.857143 0.625 0
0.642857 0.625 0
0.75 0.625 0
0.642857 0.75 0
0.75 0.75 0
0.75 0.625 0
0.857143 0.625 0
0.75 0.75 0
0.857143 0.75 0
0.857143 0 0
0.964286 0 0
0.857143 0.125 0
0.964286 0.125 0
0.964286 0 0
1.07143 0 0
0.964286 0.125 0
1.07143 0.125 0
0.857143 0.125 0
0.964286 0.125 0
0.857143 0.25 0
0.964286 0.25 0
0.964286 0.125 0
1.07143 0.125 0
0.964286 0.25 0
1.07143 0.25 0
0.857143 0.25 0
0.964286 0.25 0
0.857143 0.375 0
0.964286 0.375 0
0.964286 0.25 0
1.07143 0.25 0
0.964286 0.375 0
1.07143 0.375 0
0.857143 0.375 0
0.964286 0.375 0
0.857143 0.5 0
0.964286 0.5 0
0.964286 0.375 0
1.07143 0.375 0
0.964286 0.5 0
1.07143 0.5 0
0.857143 0.5 0
0.964286 0.5 0
0.857143 0.625 0
0.964286 0.625 0
0.964286 0.5 0
1.07143 0.5 0
0.964286 0.625 0
1.07143 0.625 0
0.857143 0.625 0
0.964286 0.625 0
0.857143 0.75 0
0.964286 0.75 0
0.964286 0.625 0
1.07143 0.625 0
0.964286 0.75 0
1.07143 0.75 0
1.07143 0 0
1.17857 0 0
1.07143 0.125 0
1.17857 0.125 0
1.17857 0 0
1.28571 0 0
1.17857 0.125 0
1.28571 0.125 0
1.07143 0.125 0
1.17857 0.125 0
1.07143 0.25 0
1.17857 0.25 0
1.17857 0.125 0
1.28571 0.125 0
1.17857 0.25 0
1.28571 0.25 0
1.07143 0.25 0
1.17857 0.25 0
1.07143 0.375 0
1.17857 0.375 0
1.17857 0.25 0
1.28571 0.25 0
[...]
POINT_DATA 8784
VECTORS velocity double
0 0 0
0 0 0
0 0 0
-0.0339481 0.0603739 0
0 0 0
-0.0339481 0.0603739 0
0 0 0
0.137126 -0.0377919 0
0 0 0
0 0 0
-0.0339481 0.0603739 0
0.00521446 -0.10569 0
-0.0339481 0.0603739 0
0.00521446 -0.10569 0
0.137126 -0.0377919 0
0.0104287 0.0862875 0
0 0 0
0 0 0
0 0 0
0.154034 0.195876 0
0 0 0
0.154034 0.195876 0
0 0 0
0.268779 -0.0569953 0
0 0 0
0 0 0
0.154034 0.195876 0
-0.0224013 0.331749 0
0.154034 0.195876 0
-0.0224013 0.331749 0
0.268779 -0.0569953 0
-0.0575828 -0.077499 0
0.0831527 -0.00113138 0
0.161836 -0.0272092 0
-0.179237 -0.0130241 0
-0.133469 -0.157058 0
0.161836 -0.0272092 0
0.0483588 -0.00505689 0
-0.133469 -0.157058 0
-0.182977 0.307252 0
-0.179237 -0.0130241 0
-0.133469 -0.157058 0
0.289649 0.09837 0
0.171675 -0.182576 0
-0.133469 -0.157058 0
-0.182977 0.307252 0
0.171675 -0.182576 0
0.294725 0.258344 0
0.0483588 -0.00505689 0
0.322434 -0.183222 0
-0.182977 0.307252 0
-0.424359 -0.562249 0
0.322434 -0.183222 0
0.452431 0.182211 0
-0.424359 -0.562249 0
-0.151258 0.0969167 0
-0.182977 0.307252 0
-0.424359 -0.562249 0
0.294725 0.258344 0
0.365149 -0.332399 0
-0.424359 -0.562249 0
-0.151258 0.0969167 0
0.365149 -0.332399 0
0.113805 -0.117283 0
0.246786 0.0303775 0
0.0254193 0.0738237 0
0.300287 -0.00291681 0
0.0095202 -0.0330433 0
0.0254193 0.0738237 0
0.221376 0.0962193 0
0.0095202 -0.0330433 0
0.298506 0.0385527 0
0.300287 -0.00291681 0
0.0095202 -0.0330433 0
0.363476 -0.0222808 0
-0.0168824 0.0602511 0
0.0095202 -0.0330433 0
0.298506 0.0385527 0
-0.0168824 0.0602511 0
0.253827 -0.0868245 0
0.363476 -0.0222808 0
-0.0168824 0.0602511 0
0.358739 -0.0362517 0
0.0291673 -0.0590767 0
-0.0168824 0.0602511 0
0.253827 -0.0868245 0
0.0291673 -0.0590767 0
0.0444378 -0.0905969 0
0.358739 -0.0362517 0
0.0291673 -0.0590767 0
0.31266 -0.106429 0
0.0798578 -0.0673557 0
0.0291673 -0.0590767 0
0.0444378 -0.0905969 0
0.0798578 -0.0673557 0
-0.0727758 -0.125106 0
0.17639 -0.0290322 0
0.159164 0.0246163 0
0.178151 0.00863493 0
0.189268 -0.0149871 0
0.159164 0.0246163 0
0.289649 0.09837 0
0.189268 -0.0149871 0
0.171675 -0.182576 0
0.178151 0.00863493 0
0.189268 -0.0149871 0
0.101198 0.0556992 0
0.171202 -0.0268368 0
0.189268 -0.0149871 0
0.171675 -0.182576 0
0.171202 -0.0268368 0
0.294725 0.258344 0
0.101198 0.0556992 0
0.171202 -0.0268368 0
-0.0480865 0.0299691 0
0.13878 -0.10986 0
0.171202 -0.0268368 0
0.294725 0.258344 0
0.13878 -0.10986 0
0.365149 -0.332399 0
-0.0480865 0.0299691 0
0.13878 -0.10986 0
-0.0605298 0.111089 0
0.0286954 0.0872453 0
0.13878 -0.10986 0
0.365149 -0.332399 0
0.0286954 0.0872453 0
0.113805 -0.117283 0
0.39361 -0.189217 0
-0.174356 -0.0629884 0
0.50988 -0.0336515 0
-0.132656 0.00206675 0
-0.174356 -0.0629884 0
0.246786 0.0303775 0
-0.132656 0.00206675 0
0.300287 -0.00291681 0
0.50988 -0.0336515 0
-0.132656 0.00206675 0
0.375255 0.110756 0
-0.131648 -0.103671 0
-0.132656 0.00206675 0
0.300287 -0.00291681 0
-0.131648 -0.103671 0
0.363476 -0.0222808 0
0.375255 0.110756 0
-0.131648 -0.103671 0
0.27195 0.251197 0
-0.261265 0.216626 0
-0.131648 -0.103671 0
0.363476 -0.0222808 0
-0.261265 0.216626 0
0.358739 -0.0362517 0
0.27195 0.251197 0
-0.261265 0.216626 0
0.0596778 -0.242416 0
-0.179086 -0.369569 0
-0.261265 0.216626 0
0.358739 -0.0362517 0
-0.179086 -0.369569 0
0.31266 -0.106429 0
0 0 0
0.0375172 -0.0404038 0
0 0 0
0.0665834 -0.167506 0
0.0375172 -0.0404038 0
0.137126 -0.0377919 0
0.0665834 -0.167506 0
0.0740467 -0.0693836 0
0 0 0
0.0665834 -0.167506 0
0 0 0
-0.0222688 -0.191121 0
0.0665834 -0.167506 0
0.0740467 -0.0693836 0
-0.0222688 -0.191121 0
-0.224868 0.172913 0
0.137126 -0.0377919 0
0.170157 0.0395822 0
0.0740467 -0.0693836 0
0.113561 0.00968708 0
0.170157 0.0395822 0
0.0104287 0.0862875 0
0.113561 0.00968708 0
0.163269 0.233732 0
0.0740467 -0.0693836 0
0.113561 0.00968708 0
-0.224868 0.172913 0
-0.290567 -0.180455 0
0.113561 0.00968708 0
0.163269 0.233732 0
-0.290567 -0.180455 0
-0.272885 0.318304 0
0 0 0
0 0 0
-0.127333 0.0647819 0
-0.197968 0.0143211 0
0 0 0
0 0 0
-0.197968 0.0143211 0
-0.183401 -0.0373273 0
-0.127333 0.0647819 0
-0.197968 0.0143211 0
-0.0390973 0.0535895 0
-0.0487846 0.105416 0
-0.197968 0.0143211 0
-0.183401 -0.0373273 0
-0.0487846 0.105416 0
-0.0684561 -0.106947 0
0 0 0
0 0 0
-0.183401 -0.0373273 0
-0.0893425 -0.101618 0
0 0 0
0 0 0
-0.0893425 -0.101618 0
0 0 0
-0.183401 -0.0373273 0
-0.0893425 -0.101618 0
-0.0684561 -0.106947 0
-0.0390118 -0.203469 0
-0.0893425 -0.101618 0
0 0 0
-0.0390118 -0.203469 0
0 0 0
0.221376 0.0962193 0
0.101921 0.134321 0
0.298506 0.0385527 0
0.0717874 0.0492604 0
0.101921 0.134321 0
-0.24056 -0.175848 0
0.0717874 0.0492604 0
-0.4074 0.132825 0
0.298506 0.0385527 0
0.0717874 0.0492604 0
0.253827 -0.0868245 0
0.178842 -0.0521145 0
0.0717874 0.0492604 0
-0.4074 0.132825 0
0.178842 -0.0521145 0
-0.312182 0.111545 0
0.253827 -0.0868245 0
0.178842 -0.0521145 0
0.0444378 -0.0905969 0
0.212027 -0.334095 0
0.178842 -0.0521145 0
-0.312182 0.111545 0
0.212027 -0.334095 0
-0.124569 -0.257106 0
0.0444378 -0.0905969 0
0.212027 -0.334095 0
-0.0727758 -0.125106 0
0.26355 0.0735161 0
0.212027 -0.334095 0
-0.124569 -0.257106 0
0.26355 0.0735161 0
-0.0718759 0.0996146 0
-0.0727758 -0.125106 0
0.26355 0.0735161 0
-0.167999 0.191922 0
0.300585 -0.0503189 0
0.26355 0.0735161 0
-0.0718759 0.0996146 0
0.300585 -0.0503189 0
-0.134854 -0.132927 0
-0.167999 0.191922 0
0.300585 -0.0503189 0
0.0114533 -0.206345 0
0.323564 0.298736 0
0.300585 -0.0503189 0
-0.134854 -0.132927 0
0.323564 0.298736 0
-0.253182 0.247498 0
0.0114533 -0.206345 0
0.323564 0.298736 0
0.18964 0.087298 0
0.43594 -0.0700392 0
0.323564 0.298736 0
-0.253182 0.247498 0
0.43594 -0.0700392 0
-0.319842 0.0132637 0
0.18964 0.087298 0
0.43594 -0.0700392 0
0.115374 -0.180799 0
0.374301 -0.171527 0
0.43594 -0.0700392 0
-0.319842 0.0132637 0
0.374301 -0.171527 0
-0.206375 -0.176007 0
0.115374 -0.180799 0
0.374301 -0.171527 0
0.0460906 0.139715 0
0.352308 -0.0132218 0
0.374301 -0.171527 0
-0.206375 -0.176007 0
0.352308 -0.0132218 0
-0.13109 0.0417683 0
0.0460906 0.139715 0
0.352308 -0.0132218 0
0.0764638 -0.0151492 0
0.379085 0.209758 0
0.352308 -0.0132218 0
-0.13109 0.0417683 0
0.379085 0.209758 0
-0.223836 0.081623 0
0.0764638 -0.0151492 0
0.379085 0.209758 0
0.230965 0.189444 0
0.0785861 -0.225455 0
0.379085 0.209758 0
-0.223836 0.081623 0
0.0785861 -0.225455 0
-0.0602276 -0.24825 0
0.230965 0.189444 0
0.0785861 -0.225455 0
0.442762 0.278793 0
-0.429477 0.340853 0
0.0785861 -0.225455 0
-0.0602276 -0.24825 0
-0.429477 0.340853 0
0.176287 0.0235549 0
0.442762 0.278793 0
-0.429477 0.340853 0
0.466568 0.027786 0
-0.531257 -0.113095 0
-0.429477 0.340853 0
0.176287 0.0235549 0
-0.531257 -0.113095 0
0.110218 0.0350824 0
0.466568 0.027786 0
-0.531257 -0.113095 0
0.203595 -0.0844859 0
-0.645971 -0.37576 0
-0.531257 -0.113095 0
0.110218 0.0350824 0
-0.645971 -0.37576 0
0.452433 -0.287755 0
-0.312182 0.111545 0
0.465015 0.112 0
-0.124569 -0.257106 0
0.55064 0.030929 0
0.465015 0.112 0
0.101198 0.0556992 0
0.55064 0.030929 0
-0.0480865 0.0299691 0
-0.124569 -0.257106 0
0.55064 0.030929 0
-0.0718759 0.0996146 0
0.648967 -0.0236099 0
0.55064 0.030929 0
-0.0480865 0.0299691 0
0.648967 -0.0236099 0
-0.0605298 0.111089 0
-0.0718759 0.0996146 0
0.648967 -0.0236099 0
-0.134854 -0.132927 0
0.652955 -0.0777466 0
0.648967 -0.0236099 0
-0.0605298 0.111089 0
0.652955 -0.0777466 0
0.0309164 -0.0854832 0
-0.134854 -0.132927 0
0.652955 -0.0777466 0
-0.253182 0.247498 0
0.495073 -0.124168 0
0.652955 -0.0777466 0
0.0309164 -0.0854832 0
0.495073 -0.124168 0
0.245188 -0.036551 0
-0.253182 0.247498 0
0.495073 -0.124168 0
-0.319842 0.0132637 0
0.193452 -0.0230541 0
0.495073 -0.124168 0
0.245188 -0.036551 0
0.193452 -0.0230541 0
0.459994 -0.234588 0
-0.319842 0.0132637 0
0.193452 -0.0230541 0
-0.206375 -0.176007 0
0.115372 -0.0649339 0
0.193452 -0.0230541 0
0.459994 -0.234588 0
0.115372 -0.0649339 0
0.484535 0.0740702 0
-0.206375 -0.176007 0
0.115372 -0.0649339 0
-0.13109 0.0417683 0
0.229319 0.171916 0
0.115372 -0.0649339 0
0.484535 0.0740702 0
0.229319 0.171916 0
0.458474 0.105745 0
-0.13109 0.0417683 0
0.229319 0.171916 0
-0.223836 0.081623 0
0.430972 0.101322 0
0.229319 0.171916 0
0.458474 0.105745 0
0.430972 0.101322 0
0.0697381 -0.0854866 0
-0.223836 0.081623 0
0.430972 0.101322 0
-0.0602276 -0.24825 0
0.534037 0.0576707 0
0.430972 0.101322 0
0.0697381 -0.0854866 0
0.534037 0.0576707 0
-0.125286 0.106592 0
-0.0602276 -0.24825 0
0.534037 0.0576707 0
0.176287 0.0235549 0
0.521004 -0.0131792 0
0.534037 0.0576707 0
-0.125286 0.106592 0
0.521004 -0.0131792 0
-0.0575969 -0.0320441 0
0.176287 0.0235549 0
0.521004 -0.0131792 0
0.110218 0.0350824 0
0.551308 0.0493014 0
0.521004 -0.0131792 0
-0.0575969 -0.0320441 0
0.551308 0.0493014 0
-0.199927 -0.0778955 0
0.110218 0.0350824 0
0.551308 0.0493014 0
0.452433 -0.287755 0
0.618732 0.149247 0
0.551308 0.0493014 0
-0.199927 -0.0778955 0
0.618732 0.149247 0
-0.166816 0.318563 0
0 0 0
-0.290875 -0.0611546 0
0 0 0
-0.101192 0.292359 0
-0.290875 -0.0611546 0
0.452488 0.0780958 0
-0.101192 0.292359 0
0.293986 0.194908 0
0 0 0
-0.101192 0.292359 0
0 0 0
-0.0735076 -0.209062 0
-0.101192 0.292359 0
0.293986 0.194908 0
-0.0735076 -0.209062 0
0.234916 -0.102191 0
0 0 0
-0.0735076 -0.209062 0
0 0 0
-0.0703805 0.22058 0
-0.0735076 -0.209062 0
0.234916 -0.102191 0
-0.0703805 0.22058 0
0.379887 0.0384795 0
0 0 0
-0.0703805 0.22058 0
0 0 0
0 0 0
-0.0703805 0.22058 0
0.379887 0.0384795 0
0 0 0
0 0 0
0 0 0
0 0 0
-0.00145849 0.175272 0
-0.0994205 0.0499161 0
0 0 0
0 0 0
-0.0994205 0.0499161 0
0.093466 0.0350648 0
-0.00145849 0.175272 0
-0.0994205 0.0499161 0
-0.0224013 0.331749 0
-0.230277 0.273877 0
-0.0994205 0.0499161 0
0.093466 0.0350648 0
-0.230277 0.273877 0
-0.102353 -0.101125 0
-0.0224013 0.331749 0
-0.230277 0.273877 0
-0.053484 0.101498 0
-0.160847 0.199776 0
-0.230277 0.273877 0
-0.102353 -0.101125 0
-0.160847 0.199776 0
-0.439341 0.232255 0
-0.053484 0.101498 0
-0.160847 0.199776 0
-0.0575828 -0.077499 0
-0.116908 -0.0901531 0
-0.160847 0.199776 0
-0.439341 0.232255 0
-0.116908 -0.0901531 0
-0.487215 -0.0824699 0
0 0 0
0 0 0
-0.00796268 -0.0264657 0
0.0689899 -0.0524395 0
0 0 0
0 0 0
0.0689899 -0.0524395 0
0.0682215 0.076168 0
-0.00796268 -0.0264657 0
0.0689899 -0.0524395 0
0.00521446 -0.10569 0
0.0365578 -0.109906 0
0.0689899 -0.0524395 0
0.0682215 0.076168 0
0.0365578 -0.109906 0
-0.0291911 0.201777 0
0.00521446 -0.10569 0
0.0365578 -0.109906 0
0.000956091 -0.109792 0
-0.124189 0.0111017 0
0.0365578 -0.109906 0
-0.0291911 0.201777 0
-0.124189 0.0111017 0
-0.0973136 0.122854 0
0.000956091 -0.109792 0
-0.124189 0.0111017 0
0.0104287 0.0862875 0
-0.0601092 0.0639521 0
-0.124189 0.0111017 0
-0.0973136 0.122854 0
-0.0601092 0.0639521 0
-0.00488099 -0.0147998 0
0.0104287 0.0862875 0
-0.0601092 0.0639521 0
0.163269 0.233732 0
0.0817671 0.0970147 0
-0.0601092 0.0639521 0
-0.00488099 -0.0147998 0
0.0817671 0.0970147 0
0.00740738 -0.0209408 0
0.163269 0.233732 0
0.0817671 0.0970147 0
-0.272885 0.318304 0
-0.183604 0.0111376 0
0.0817671 0.0970147 0
0.00740738 -0.0209408 0
-0.183604 0.0111376 0
-0.109578 0.0542185 0
0 0 0
0 0 0
0.0682215 0.076168 0
-0.083224 0.119057 0
0 0 0
0 0 0
-0.083224 0.119057 0
-0.181862 0.010835 0
0.0682215 0.076168 0
-0.083224 0.119057 0
-0.0291911 0.201777 0
0.00827693 0.127891 0
-0.083224 0.119057 0
-0.181862 0.010835 0
0.00827693 0.127891 0
0.0492266 0.0515522 0
-0.0291911 0.201777 0
0.00827693 0.127891 0
-0.0973136 0.122854 0
-0.057518 0.112617 0
0.00827693 0.127891 0
0.0492266 0.0515522 0
-0.057518 0.112617 0
-0.307302 0.287359 0
-0.0973136 0.122854 0
-0.057518 0.112617 0
-0.00488099 -0.0147998 0
-0.095545 0.336406 0
-0.057518 0.112617 0
-0.307302 0.287359 0
-0.095545 0.336406 0
-0.111883 0.388925 0
-0.00488099 -0.0147998 0
-0.095545 0.336406 0
0.00740738 -0.0209408 0
0.182458 0.258393 0
-0.095545 0.336406 0
-0.111883 0.388925 0
0.182458 0.258393 0
0.430778 0.205197 0
0.00740738 -0.0209408 0
0.182458 0.258393 0
-0.109578 0.0542185 0
-0.0948051 -0.0378742 0
0.182458 0.258393 0
0.430778 0.205197 0
-0.0948051 -0.0378742 0
0.0831527 -0.00113138 0
0 0 0
0 0 0
-0.181862 0.010835 0
-0.1503 -0.0421053 0
0 0 0
0 0 0
-0.1503 -0.0421053 0
-0.180137 0.0794476 0
-0.181862 0.010835 0
-0.1503 -0.0421053 0
0.0492266 0.0515522 0
-0.0938306 0.0214073 0
-0.1503 -0.0421053 0
-0.180137 0.0794476 0
-0.0938306 0.0214073 0
-0.0629548 0.0167703 0
0.0492266 0.0515522 0
-0.0938306 0.0214073 0
-0.307302 0.287359 0
-0.412405 0.0796798 0
-0.0938306 0.0214073 0
-0.0629548 0.0167703 0
-0.412405 0.0796798 0
-0.278164 -0.229308 0
-0.307302 0.287359 0
-0.412405 0.0796798 0
-0.111883 0.388925 0
0.0263177 -0.0465384 0
-0.412405 0.0796798 0
-0.278164 -0.229308 0
0.0263177 -0.0465384 0
0.113547 -0.360419 0
-0.111883 0.388925 0
0.0263177 -0.0465384 0
0.430778 0.205197 0
0.491749 -0.0998213 0
0.0263177 -0.0465384 0
0.113547 -0.360419 0
0.491749 -0.0998213 0
0.342842 -0.243308 0
0.430778 0.205197 0
0.491749 -0.0998213 0
0.0831527 -0.00113138 0
0.161836 -0.0272092 0
0.491749 -0.0998213 0
0.342842 -0.243308 0
0.161836 -0.0272092 0
0.0483588 -0.00505689 0
0 0 0
0 0 0
-0.180137 0.0794476 0
-0.180534 -0.0960088 0
0 0 0
0 0 0
-0.180534 -0.0960088 0
-0.0160906 -0.105812 0
-0.180137 0.0794476 0
-0.180534 -0.0960088 0
-0.0629548 0.0167703 0
-0.0204461 -0.0808051 0
-0.180534 -0.0960088 0
-0.0160906 -0.105812 0
-0.0204461 -0.0808051 0
0.0209522 -0.372767 0
-0.0629548 0.0167703 0
-0.0204461 -0.0808051 0
-0.278164 -0.229308 0
-0.0361251 -0.174934 0
-0.0204461 -0.0808051 0
0.0209522 -0.372767 0
-0.0361251 -0.174934 0
0.00245246 -0.395711 0
-0.278164 -0.229308 0
-0.0361251 -0.174934 0
0.113547 -0.360419 0
0.075088 -0.235516 0
-0.0361251 -0.174934 0
0.00245246 -0.395711 0
0.075088 -0.235516 0
-0.18197 -0.0982366 0
0.113547 -0.360419 0
0.075088 -0.235516 0
0.342842 -0.243308 0
0.0608585 0.0333208 0
0.075088 -0.235516 0
-0.18197 -0.0982366 0
0.0608585 0.0333208 0
-0.0206118 0.00359762 0
0.342842 -0.243308 0
0.0608585 0.0333208 0
0.0483588 -0.00505689 0
0.322434 -0.183222 0
0.0608585 0.0333208 0
-0.0206118 0.00359762 0
0.322434 -0.183222 0
0.452431 0.182211 0
0 0 0
0 0 0
-0.0160906 -0.105812 0
-0.0590836 0.20308 0
0 0 0
0 0 0
-0.0590836 0.20308 0
-0.0398387 -0.248816 0
-0.0160906 -0.105812 0
-0.0590836 0.20308 0
0.0209522 -0.372767 0
0.250196 0.260916 0
-0.0590836 0.20308 0
-0.0398387 -0.248816 0
0.250196 0.260916 0
0.118459 -0.247995 0
0.0209522 -0.372767 0
0.250196 0.260916 0
0.00245246 -0.395711 0
-0.121247 0.229757 0
0.250196 0.260916 0
0.118459 -0.247995 0
-0.121247 0.229757 0
-0.225882 0.0803335 0
0.00245246 -0.395711 0
-0.121247 0.229757 0
-0.18197 -0.0982366 0
-0.0217695 -0.0688525 0
-0.121247 0.229757 0
-0.225882 0.0803335 0
-0.0217695 -0.0688525 0
0.224447 0.184698 0
0 0 0
0 0 0
-0.0398387 -0.248816 0
0.34715 -0.146179 0
0 0 0
0 0 0
0.34715 -0.146179 0
0.222321 0.299248 0
-0.0398387 -0.248816 0
0.34715 -0.146179 0
0.118459 -0.247995 0
-0.286016 -0.137184 0
0.34715 -0.146179 0
0.222321 0.299248 0
-0.286016 -0.137184 0
-0.293768 0.405596 0
0.118459 -0.247995 0
-0.286016 -0.137184 0
-0.225882 0.0803335 0
-0.148135 -0.0104615 0
-0.286016 -0.137184 0
-0.293768 0.405596 0
-0.148135 -0.0104615 0
-0.0499572 0.21373 0
-0.225882 0.0803335 0
-0.148135 -0.0104615 0
0.224447 0.184698 0
0.0863678 -0.049266 0
-0.148135 -0.0104615 0
-0.0499572 0.21373 0
0.0863678 -0.049266 0
-0.00086906 0.237523 0
0 0 0
0 0 0
0.222321 0.299248 0
0.0301777 -0.0761697 0
0 0 0
0 0 0
0.0301777 -0.0761697 0
0.000536445 0.107149 0
0.222321 0.299248 0
0.0301777 -0.0761697 0
-0.293768 0.405596 0
-0.221905 -0.0255189 0
0.0301777 -0.0761697 0
0.000536445 0.107149 0
-0.221905 -0.0255189 0
-0.173423 0.0479125 0
-0.293768 0.405596 0
-0.221905 -0.0255189 0
-0.0499572 0.21373 0
-0.0302735 0.0297442 0
-0.221905 -0.0255189 0
-0.173423 0.0479125 0
-0.0302735 0.0297442 0
-0.115615 0.0168722 0
-0.0499572 0.21373 0
-0.0302735 0.0297442 0
-0.00086906 0.237523 0
-0.0163335 -0.00148311 0
-0.0302735 0.0297442 0
-0.115615 0.0168722 0
-0.0163335 -0.00148311 0
-0.131982 0.345222 0
0 0 0
0 0 0
0.000536445 0.107149 0
0.0296165 -0.161884 0
0 0 0
0 0 0
0.0296165 -0.161884 0
0.508641 -0.421239 0
0.000536445 0.107149 0
0.0296165 -0.161884 0
-0.173423 0.0479125 0
-0.0706732 -0.247547 0
0.0296165 -0.161884 0
0.508641 -0.421239 0
-0.0706732 -0.247547 0
-0.206 -0.694032 0
-0.173423 0.0479125 0
-0.0706732 -0.247547 0
-0.115615 0.0168722 0
-0.394042 -0.0666943 0
-0.0706732 -0.247547 0
-0.206 -0.694032 0
-0.394042 -0.0666943 0
-0.613813 -0.484962 0
-0.115615 0.0168722 0
-0.394042 -0.0666943 0
-0.131982 0.345222 0
0.00425013 -0.231044 0
-0.394042 -0.0666943 0
-0.613813 -0.484962 0
0.00425013 -0.231044 0
0.320576 -0.356042 0
0 0 0
0.137107 -0.0170281 0
0 0 0
0.0558106 -0.0903647 0
0.137107 -0.0170281 0
0.268779 -0.0569953 0
0.0558106 -0.0903647 0
0.279516 -0.144798 0
0 0 0
0.0558106 -0.0903647 0
0 0 0
-0.0113502 0.00116562 0
0.0558106 -0.0903647 0
0.279516 -0.144798 0
-0.0113502 0.00116562 0
0.185924 -0.138755 0
0 0 0
-0.0113502 0.00116562 0
0 0 0
0.00259587 -0.00171913 0
-0.0113502 0.00116562 0
0.185924 -0.138755 0
0.00259587 -0.00171913 0
0.0631206 0.017327 0
0 0 0
0.00259587 -0.00171913 0
0 0 0
0.0505603 0.063094 0
0.00259587 -0.00171913 0
0.0631206 0.017327 0
0.0505603 0.063094 0
-0.110639 -0.0646877 0
0 0 0
0.0505603 0.063094 0
0 0 0
0.117554 0.00982663 0
0.0505603 0.063094 0
-0.110639 -0.0646877 0
0.117554 0.00982663 0
-0.341079 -0.028006 0
0 0 0
0.117554 0.00982663 0
0 0 0
0.0551821 -0.0996931 0
0.117554 0.00982663 0
-0.341079 -0.028006 0
0.0551821 -0.0996931 0
-0.163008 0.0668498 0
0 0 0
0.0551821 -0.0996931 0
0 0 0
0.0221437 0.0634822 0
0.0551821 -0.0996931 0
-0.163008 0.0668498 0
0.0221437 0.0634822 0
0.0914444 0.153526 0
0 0 0
0.0221437 0.0634822 0
0 0 0
0.0134801 -0.0674458 0
0.0221437 0.0634822 0
0.0914444 0.153526 0
0.0134801 -0.0674458 0
0.163991 -0.0863416 0
0 0 0
0.0134801 -0.0674458 0
0 0 0
-0.0458127 0.0102522 0
0.0134801 -0.0674458 0
0.163991 -0.0863416 0
-0.0458127 0.0102522 0
0.21958 -0.000447437 0
0 0 0
-0.0458127 0.0102522 0
0 0 0
0.822573 1.04916 0
-0.0458127 0.0102522 0
0.21958 -0.000447437 0
0.822573 1.04916 0
-0.669001 0.998576 0
0 0 0
0.822573 1.04916 0
0 0 0
1.1928 -0.676728 0
0.822573 1.04916 0
-0.669001 0.998576 0
1.1928 -0.676728 0
-0.900799 -0.556113 0
0 0 0
1.1928 -0.676728 0
0 0 0
0.133474 -0.567477 0
1.1928 -0.676728 0
-0.900799 -0.556113 0
0.133474 -0.567477 0
-0.0275814 -0.850514 0
0 0 0
0.133474 -0.567477 0
0 0 0
0.586171 1.09219 0
0.133474 -0.567477 0
-0.0275814 -0.850514 0
0.586171 1.09219 0
-0.762238 0.987397 0
0 0 0
0.586171 1.09219 0
0 0 0
0.874327 -0.794556 0
0.586171 1.09219 0
-0.762238 0.987397 0
0.874327 -0.794556 0
-1.01217 -0.70484 0
0 0 0
0.874327 -0.794556 0
0 0 0
0.107539 -0.0573697 0
0.874327 -0.794556 0
-1.01217 -0.70484 0
0.107539 -0.0573697 0
-0.103913 0.0873948 0
0 0 0
0.107539 -0.0573697 0
0 0 0
0.255995 0.253935 0
0.107539 -0.0573697 0
-0.103913 0.0873948 0
0.255995 0.253935 0
0.0683051 0.503819 0
0.268779 -0.0569953 0
0.106845 -0.0833832 0
0.279516 -0.144798 0
0.104195 -0.142407 0
0.106845 -0.0833832 0
-0.0575828 -0.077499 0
0.104195 -0.142407 0
0.00856837 -0.122967 0
0.279516 -0.144798 0
0.104195 -0.142407 0
0.185924 -0.138755 0
0.134554 -0.240811 0
0.104195 -0.142407 0
0.00856837 -0.122967 0
0.134554 -0.240811 0
0.034495 -0.22247 0
0.185924 -0.138755 0
0.134554 -0.240811 0
0.0631206 0.017327 0
-0.0535973 -0.264417 0
0.134554 -0.240811 0
0.034495 -0.22247 0
-0.0535973 -0.264417 0
-0.0542459 -0.657082 0
0.0631206 0.017327 0
-0.0535973 -0.264417 0
-0.110639 -0.0646877 0
-0.530696 -0.535999 0
-0.0535973 -0.264417 0
-0.0542459 -0.657082 0
-0.530696 -0.535999 0
-0.0123774 -0.710966 0
-0.110639 -0.0646877 0
-0.530696 -0.535999 0
-0.341079 -0.028006 0
-0.734402 -0.104294 0
-0.530696 -0.535999 0
-0.0123774 -0.710966 0
-0.734402 -0.104294 0
0.0653419 -0.0952285 0
-0.341079 -0.028006 0
-0.734402 -0.104294 0
-0.163008 0.0668498 0
-0.622131 0.438907 0
-0.734402 -0.104294 0
0.0653419 -0.0952285 0
-0.622131 0.438907 0
0.074964 0.585299 0
-0.163008 0.0668498 0
-0.622131 0.438907 0
0.0914444 0.153526 0
-0.248248 0.486199 0