# vtk DataFile Version 3.0
#This file was generated by the deal.II library on 2026/3/26 at 11:22:01
ASCII
DATASET UNSTRUCTURED_GRID

POINTS 3648 double
0 0 0
0.214286 0 0
0 0.25 0
0.214286 0.25 0
0 0.25 0
0.214286 0.25 0
0 0.5 0
0.214286 0.5 0
0.214286 0 0
0.428571 0 0
0.214286 0.25 0
0.428571 0.25 0
0.214286 0.25 0
0.428571 0.25 0
0.214286 0.5 0
0.428571 0.5 0
0.428571 0 0
0.642857 0 0
0.428571 0.25 0
0.642857 0.25 0
0.428571 0.25 0
0.642857 0.25 0
0.428571 0.5 0
0.642857 0.5 0
0.428571 0.5 0
0.642857 0.5 0
0.428571 0.75 0
0.642857 0.75 0
0.642857 0 0
0.857143 0 0
0.642857 0.25 0
0.857143 0.25 0
0.642857 0.25 0
0.857143 0.25 0
0.642857 0.5 0
0.857143 0.5 0
0.642857 0.5 0
0.857143 0.5 0
0.642857 0.75 0
0.857143 0.75 0
0.857143 0 0
1.07143 0 0
0.857143 0.25 0
1.07143 0.25 0
0.857143 0.25 0
1.07143 0.25 0
0.857143 0.5 0
1.07143 0.5 0
0.857143 0.5 0
1.07143 0.5 0
0.857143 0.75 0
1.07143 0.75 0
1.07143 0 0
1.28571 0 0
1.07143 0.25 0
1.28571 0.25 0
1.07143 0.25 0
1.28571 0.25 0
1.07143 0.5 0
1.28571 0.5 0
1.07143 0.5 0
1.28571 0.5 0
1.07143 0.75 0
1.28571 0.75 0
1.28571 0 0
1.5 0 0
1.28571 0.25 0
1.5 0.25 0
1.28571 0.25 0
1.5 0.25 0
1.28571 0.5 0
1.5 0.5 0
1.5 0 0
1.71429 0 0
1.5 0.25 0
1.71429 0.25 0
1.5 0.25 0
1.71429 0.25 0
1.5 0.5 0
1.71429 0.5 0
1.71429 0 0
1.92857 0 0
1.71429 0.25 0
1.92857 0.25 0
1.71429 0.25 0
1.92857 0.25 0
1.71429 0.5 0
1.92857 0.5 0
1.92857 0 0
2.14286 0 0
1.92857 0.25 0
2.14286 0.25 0
1.92857 0.25 0
2.14286 0.25 0
1.92857 0.5 0
2.14286 0.5 0
0 3 0
0 2.75 0
0.214286 3 0
0.214286 2.75 0
0.214286 3 0
0.214286 2.75 0
0.428571 3 0
0.428571 2.75 0
0.428571 3 0
0.428571 2.75 0
0.642857 3 0
0.642857 2.75 0
0.642857 3 0
0.642857 2.75 0
0.857143 3 0
0.857143 2.75 0
0.857143 3 0
0.857143 2.75 0
1.07143 3 0
1.07143 2.75 0
1.07143 3 0
1.07143 2.75 0
1.28571 3 0
1.28571 2.75 0
1.28571 3 0
1.28571 2.75 0
1.5 3 0
1.5 2.75 0
1.5 3 0
1.5 2.75 0
1.71429 3 0
1.71429 2.75 0
1.71429 3 0
1.71429 2.75 0
1.92857 3 0
1.92857 2.75 0
1.92857 3 0
1.92857 2.75 0
2.14286 3 0
2.14286 2.75 0
0 2.75 0
0 2.5 0
0.214286 2.75 0
0.214286 2.5 0
0.214286 2.75 0
0.214286 2.5 0
0.428571 2.75 0
0.428571 2.5 0
0.428571 2.75 0
0.428571 2.5 0
0.642857 2.75 0
0.642857 2.5 0
0.642857 2.75 0
0.642857 2.5 0
0.857143 2.75 0
0.857143 2.5 0
0.857143 2.75 0
0.857143 2.5 0
1.07143 2.75 0
1.07143 2.5 0
1.07143 2.75 0
1.07143 2.5 0
1.28571 2.75 0
1.28571 2.5 0
1.28571 2.75 0
1.28571 2.5 0
1.5 2.75 0
1.5 2.5 0
1.5 2.75 0
1.5 2.5 0
1.71429 2.75 0
1.71429 2.5 0
1.71429 2.75 0
1.71429 2.5 0
1.92857 2.75 0
1.92857 2.5 0
1.92857 2.75 0
1.92857 2.5 0
2.14286 2.75 0
2.14286 2.5 0
0.428571 2.5 0
0.428571 2.25 0
0.642857 2.5 0
0.642857 2.25 0
0.642857 2.5 0
0.642857 2.25 0
0.857143 2.5 0
0.857143 2.25 0
0.857143 2.5 0
0.857143 2.25 0
1.07143 2.5 0
1.07143 2.25 0
1.07143 2.5 0
1.07143 2.25 0
1.28571 2.5 0
1.28571 2.25 0
0.214286 0.75 0
0.321429 0.75 0
0.214286 0.875 0
0.321429 0.875 0
0.321429 0.75 0
0.428571 0.75 0
0.321429 0.875 0
0.428571 0.875 0
0.214286 0.875 0
0.321429 0.875 0
0.214286 1 0
0.321429 1 0
0.321429 0.875 0
0.428571 0.875 0
0.321429 1 0
0.428571 1 0
0.428571 0.75 0
0.535714 0.75 0
0.428571 0.875 0
0.535714 0.875 0
0.535714 0.75 0
0.642857 0.75 0
0.535714 0.875 0
0.642857 0.875 0
0.428571 0.875 0
0.535714 0.875 0
0.428571 1 0
0.535714 1 0
0.535714 0.875 0
0.642857 0.875 0
0.535714 1 0
0.642857 1 0
0.642857 0.75 0
0.75 0.75 0
0.642857 0.875 0
0.75 0.875 0
0.75 0.75 0
0.857143 0.75 0
0.75 0.875 0
0.857143 0.875 0
0.642857 0.875 0
0.75 0.875 0
0.642857 1 0
0.75 1 0
0.75 0.875 0
0.857143 0.875 0
0.75 1 0
0.857143 1 0
0.857143 0.75 0
0.964286 0.75 0
0.857143 0.875 0
0.964286 0.875 0
0.964286 0.75 0
1.07143 0.75 0
0.964286 0.875 0
1.07143 0.875 0
0.857143 0.875 0
0.964286 0.875 0
0.857143 1 0
0.964286 1 0
0.964286 0.875 0
1.07143 0.875 0
0.964286 1 0
1.07143 1 0
1.07143 0.75 0
1.17857 0.75 0
1.07143 0.875 0
1.17857 0.875 0
1.17857 0.75 0
1.28571 0.75 0
1.17857 0.875 0
1.28571 0.875 0
1.07143 0.875 0
1.17857 0.875 0
1.07143 1 0
1.17857 1 0
1.17857 0.875 0
1.28571 0.875 0
1.17857 1 0
1.28571 1 0
0.214286 2 0
0.214286 1.875 0
0.321429 2 0
0.321429 1.875 0
0.214286 1.875 0
0.214286 1.75 0
0.321429 1.875 0
0.321429 1.75 0
0.321429 2 0
0.321429 1.875 0
0.428571 2 0
0.428571 1.875 0
0.321429 1.875 0
0.321429 1.75 0
0.428571 1.875 0
0.428571 1.75 0
0.428571 2 0
0.428571 1.875 0
0.535714 2 0
0.535714 1.875 0
0.428571 1.875 0
0.428571 1.75 0
0.535714 1.875 0
0.535714 1.75 0
0.535714 2 0
0.535714 1.875 0
0.642857 2 0
0.642857 1.875 0
0.535714 1.875 0
0.535714 1.75 0
0.642857 1.875 0
0.642857 1.75 0
0.642857 2 0
0.642857 1.875 0
0.75 2 0
0.75 1.875 0
0.642857 1.875 0
0.642857 1.75 0
0.75 1.875 0
0.75 1.75 0
0.75 2 0
0.75 1.875 0
0.857143 2 0
0.857143 1.875 0
0.75 1.875 0
0.75 1.75 0
0.857143 1.875 0
0.857143 1.75 0
0.857143 2 0
0.857143 1.875 0
0.964286 2 0
0.964286 1.875 0
0.857143 1.875 0
0.857143 1.75 0
0.964286 1.875 0
0.964286 1.75 0
0.964286 2 0
0.964286 1.875 0
1.07143 2 0
1.07143 1.875 0
0.964286 1.875 0
0.964286 1.75 0
1.07143 1.875 0
1.07143 1.75 0
1.07143 2 0
1.07143 1.875 0
1.17857 2 0
1.17857 1.875 0
1.07143 1.875 0
1.07143 1.75 0
1.17857 1.875 0
1.17857 1.75 0
1.17857 2 0
1.17857 1.875 0
1.28571 2 0
1.28571 1.875 0
1.17857 1.875 0
1.17857 1.75 0
1.28571 1.875 0
1.28571 1.75 0
0.214286 1.25 0
0.214286 1.125 0
0.321429 1.25 0
0.321429 1.125 0
0.214286 1.125 0
0.214286 1 0
0.321429 1.125 0
0.321429 1 0
0.321429 1.25 0
0.321429 1.125 0
0.428571 1.25 0
0.428571 1.125 0
0.321429 1.125 0
0.321429 1 0
0.428571 1.125 0
0.428571 1 0
0.428571 1.25 0
0.428571 1.125 0
0.535714 1.25 0
0.535714 1.125 0
0.428571 1.125 0
0.428571 1 0
0.535714 1.125 0
0.535714 1 0
0.535714 1.25 0
0.535714 1.125 0
0.642857 1.25 0
0.642857 1.125 0
0.535714 1.125 0
0.535714 1 0
0.642857 1.125 0
0.642857 1 0
0.642857 1.25 0
0.642857 1.125 0
0.75 1.25 0
0.75 1.125 0
0.642857 1.125 0
0.642857 1 0
0.75 1.125 0
0.75 1 0
0.75 1.25 0
0.75 1.125 0
0.857143 1.25 0
0.857143 1.125 0
0.75 1.125 0
0.75 1 0
0.857143 1.125 0
0.857143 1 0
0.857143 1.25 0
0.857143 1.125 0
0.964286 1.25 0
0.964286 1.125 0
0.857143 1.125 0
0.857143 1 0
0.964286 1.125 0
0.964286 1 0
0.964286 1.25 0
0.964286 1.125 0
1.07143 1.25 0
1.07143 1.125 0
0.964286 1.125 0
0.964286 1 0
1.07143 1.125 0
1.07143 1 0
1.07143 1.25 0
1.07143 1.125 0
1.17857 1.25 0
1.17857 1.125 0
1.07143 1.125 0
1.07143 1 0
1.17857 1.125 0
1.17857 1 0
1.17857 1.25 0
1.17857 1.125 0
1.28571 1.25 0
1.28571 1.125 0
1.17857 1.125 0
1.17857 1 0
1.28571 1.125 0
1.28571 1 0
0.214286 2.25 0
0.214286 2.125 0
0.321429 2.25 0
0.321429 2.125 0
0.214286 2.125 0
0.214286 2 0
0.321429 2.125 0
0.321429 2 0
0.321429 2.25 0
0.321429 2.125 0
0.428571 2.25 0
0.428571 2.125 0
0.321429 2.125 0
0.321429 2 0
0.428571 2.125 0
0.428571 2 0
0.428571 2.25 0
0.428571 2.125 0
0.535714 2.25 0
0.535714 2.125 0
0.428571 2.125 0
0.428571 2 0
0.535714 2.125 0
0.535714 2 0
0.535714 2.25 0
0.535714 2.125 0
0.642857 2.25 0
0.642857 2.125 0
0.535714 2.125 0
0.535714 2 0
0.642857 2.125 0
0.642857 2 0
0.642857 2.25 0
0.642857 2.125 0
0.75 2.25 0
0.75 2.125 0
0.642857 2.125 0
0.642857 2 0
0.75 2.125 0
0.75 2 0
0.75 2.25 0
0.75 2.125 0
0.857143 2.25 0
0.857143 2.125 0
0.75 2.125 0
0.75 2 0
0.857143 2.125 0
0.857143 2 0
0.857143 2.25 0
0.857143 2.125 0
0.964286 2.25 0
0.964286 2.125 0
0.857143 2.125 0
0.857143 2 0
0.964286 2.125 0
0.964286 2 0
0.964286 2.25 0
0.964286 2.125 0
1.07143 2.25 0
1.07143 2.125 0
0.964286 2.125 0
0.964286 2 0
1.07143 2.125 0
1.07143 2 0
1.07143 2.25 0
1.07143 2.125 0
1.17857 2.25 0
1.17857 2.125 0
1.07143 2.125 0
1.07143 2 0
1.17857 2.125 0
1.17857 2 0
1.17857 2.25 0
1.17857 2.125 0
1.28571 2.25 0
1.28571 2.125 0
1.17857 2.125 0
1.17857 2 0
1.28571 2.125 0
1.28571 2 0
0 0.5 0
0.107143 0.5 0
0 0.625 0
0.107143 0.625 0
0.107143 0.5 0
0.214286 0.5 0
0.107143 0.625 0
0.214286 0.625 0
0 0.625 0
0.107143 0.625 0
0 0.75 0
0.107143 0.75 0
0.107143 0.625 0
0.214286 0.625 0
0.107143 0.75 0
0.214286 0.75 0
0.214286 0.5 0
0.321429 0.5 0
0.214286 0.625 0
0.321429 0.625 0
0.321429 0.5 0
0.428571 0.5 0
0.321429 0.625 0
0.428571 0.625 0
0.214286 0.625 0
0.321429 0.625 0
0.214286 0.75 0
0.321429 0.75 0
0.321429 0.625 0
0.428571 0.625 0
0.321429 0.75 0
0.428571 0.75 0
1.28571 0.5 0
1.39286 0.5 0
1.28571 0.625 0
1.39286 0.625 0
1.39286 0.5 0
1.5 0.5 0
1.39286 0.625 0
1.5 0.625 0
1.28571 0.625 0
1.39286 0.625 0
1.28571 0.75 0
1.39286 0.75 0
1.39286 0.625 0
1.5 0.625 0
1.39286 0.75 0
1.5 0.75 0
1.28571 0.75 0
1.39286 0.75 0
1.28571 0.875 0
1.39286 0.875 0
1.39286 0.75 0
1.5 0.75 0
1.39286 0.875 0
1.5 0.875 0
1.28571 0.875 0
1.39286 0.875 0
1.28571 1 0
1.39286 1 0
1.39286 0.875 0
1.5 0.875 0
1.39286 1 0
1.5 1 0
1.5 0.5 0
1.60714 0.5 0
1.5 0.625 0
1.60714 0.625 0
1.60714 0.5 0
1.71429 0.5 0
1.60714 0.625 0
1.71429 0.625 0
1.5 0.625 0
1.60714 0.625 0
1.5 0.75 0
1.60714 0.75 0
1.60714 0.625 0
1.71429 0.625 0
1.60714 0.75 0
1.71429 0.75 0
1.71429 0.5 0
1.82143 0.5 0
1.71429 0.625 0
1.82143 0.625 0
1.82143 0.5 0
1.92857 0.5 0
1.82143 0.625 0
1.92857 0.625 0
1.71429 0.625 0
1.82143 0.625 0
1.71429 0.75 0
1.82143 0.75 0
1.82143 0.625 0
1.92857 0.625 0
1.82143 0.75 0
1.92857 0.75 0
1.92857 0.5 0
2.03571 0.5 0
1.92857 0.625 0
2.03571 0.625 0
2.03571 0.5 0
2.14286 0.5 0
2.03571 0.625 0
2.14286 0.625 0
1.92857 0.625 0
2.03571 0.625 0
1.92857 0.75 0
2.03571 0.75 0
2.03571 0.625 0
2.14286 0.625 0
2.03571 0.75 0
2.14286 0.75 0
2.14286 0 0
2.25 0 0
2.14286 0.125 0
2.25 0.125 0
2.25 0 0
2.35714 0 0
2.25 0.125 0
2.35714 0.125 0
2.14286 0.125 0
2.25 0.125 0
2.14286 0.25 0
2.25 0.25 0
2.25 0.125 0
2.35714 0.125 0
2.25 0.25 0
2.35714 0.25 0
2.14286 0.25 0
2.25 0.25 0
2.14286 0.375 0
2.25 0.375 0
2.25 0.25 0
2.35714 0.25 0
2.25 0.375 0
2.35714 0.375 0
2.14286 0.375 0
2.25 0.375 0
2.14286 0.5 0
2.25 0.5 0
2.25 0.375 0
2.35714 0.375 0
2.25 0.5 0
2.35714 0.5 0
2.14286 0.5 0
2.25 0.5 0
2.14286 0.625 0
2.25 0.625 0
2.25 0.5 0
2.35714 0.5 0
2.25 0.625 0
2.35714 0.625 0
2.14286 0.625 0
2.25 0.625 0
2.14286 0.75 0
2.25 0.75 0
2.25 0.625 0
2.35714 0.625 0
2.25 0.75 0
2.35714 0.75 0
2.35714 0 0
2.46429 0 0
[...]
POINT_DATA 3648
VECTORS velocity double
0 0 0
0 0 0
0 0 0
-0.0115835 0.0130321 0
0 0 0
-0.0115835 0.0130321 0
0 0 0
-0.00156583 0.0285138 0
0 0 0
0 0 0
-0.0115835 0.0130321 0
-0.0343393 0.0132966 0
-0.0115835 0.0130321 0
-0.0343393 0.0132966 0
-0.00156583 0.0285138 0
-0.00171901 0.0248924 0
0 0 0
0 0 0
-0.0343393 0.0132966 0
-0.0522562 0.00799662 0
-0.0343393 0.0132966 0
-0.0522562 0.00799662 0
-0.00171901 0.0248924 0
-0.00264349 0.0184198 0
-0.00171901 0.0248924 0
-0.00264349 0.0184198 0
0.0206044 0.0157784 0
0.0356922 0.0115509 0
0 0 0
0 0 0
-0.0522562 0.00799662 0
-0.0584356 -0.00047269 0
-0.0522562 0.00799662 0
-0.0584356 -0.00047269 0
-0.00264349 0.0184198 0
0.00332927 -0.0117401 0
-0.00264349 0.0184198 0
0.00332927 -0.0117401 0
0.0356922 0.0115509 0
0.0345548 -0.0104033 0
0 0 0
0 0 0
-0.0584356 -0.00047269 0
-0.0483176 -0.0110244 0
-0.0584356 -0.00047269 0
-0.0483176 -0.0110244 0
0.00332927 -0.0117401 0
0.00728175 -0.0160212 0
0.00332927 -0.0117401 0
0.00728175 -0.0160212 0
0.0345548 -0.0104033 0
0.0173746 -0.000952419 0
0 0 0
0 0 0
-0.0483176 -0.0110244 0
-0.00742559 -0.0389725 0
-0.0483176 -0.0110244 0
-0.00742559 -0.0389725 0
0.00728175 -0.0160212 0
-0.0201618 -0.0498385 0
0.00728175 -0.0160212 0
-0.0201618 -0.0498385 0
0.0173746 -0.000952419 0
0.00814637 -0.0227259 0
0 0 0
0 0 0
-0.00742559 -0.0389725 0
0.0729758 -0.0559742 0
-0.00742559 -0.0389725 0
0.0729758 -0.0559742 0
-0.0201618 -0.0498385 0
-0.0672584 -0.0821483 0
0 0 0
0 0 0
0.0729758 -0.0559742 0
0.0820182 0.0457895 0
0.0729758 -0.0559742 0
0.0820182 0.0457895 0
-0.0672584 -0.0821483 0
-0.0662175 0.0579023 0
0 0 0
0 0 0
0.0820182 0.0457895 0
0.0281903 0.0167917 0
0.0820182 0.0457895 0
0.0281903 0.0167917 0
-0.0662175 0.0579023 0
-0.0422617 0.040336 0
0 0 0
0 0 0
0.0281903 0.0167917 0
-0.0102959 0.0268952 0
0.0281903 0.0167917 0
-0.0102959 0.0268952 0
-0.0422617 0.040336 0
-0.0118422 0.0123335 0
0 0 0
0 0 0
0 0 0
-0.0116851 -0.0131442 0
0 0 0
-0.0116851 -0.0131442 0
0 0 0
-0.034586 -0.0133498 0
0 0 0
-0.034586 -0.0133498 0
0 0 0
-0.0524625 -0.00790566 0
0 0 0
-0.0524625 -0.00790566 0
0 0 0
-0.0584673 0.000577079 0
0 0 0
-0.0584673 0.000577079 0
0 0 0
-0.0482931 0.0109894 0
0 0 0
-0.0482931 0.0109894 0
0 0 0
-0.00735062 0.0390873 0
0 0 0
-0.00735062 0.0390873 0
0 0 0
0.0731228 0.0559492 0
0 0 0
0.0731228 0.0559492 0
0 0 0
0.0821247 -0.0458009 0
0 0 0
0.0821247 -0.0458009 0
0 0 0
0.0283517 -0.0167286 0
0 0 0
0.0283517 -0.0167286 0
0 0 0
-0.010193 -0.0270177 0
0 0 0
0 0 0
-0.0116851 -0.0131442 0
-0.001576 -0.0287605 0
-0.0116851 -0.0131442 0
-0.001576 -0.0287605 0
-0.034586 -0.0133498 0
-0.00168928 -0.0249396 0
-0.034586 -0.0133498 0
-0.00168928 -0.0249396 0
-0.0524625 -0.00790566 0
-0.00256333 -0.0182263 0
-0.0524625 -0.00790566 0
-0.00256333 -0.0182263 0
-0.0584673 0.000577079 0
0.00345832 0.0120132 0
-0.0584673 0.000577079 0
0.00345832 0.0120132 0
-0.0482931 0.0109894 0
0.00748656 0.0159675 0
-0.0482931 0.0109894 0
0.00748656 0.0159675 0
-0.00735062 0.0390873 0
-0.0201235 0.0498333 0
-0.00735062 0.0390873 0
-0.0201235 0.0498333 0
0.0731228 0.0559492 0
-0.0673339 0.0821686 0
0.0731228 0.0559492 0
-0.0673339 0.0821686 0
0.0821247 -0.0458009 0
-0.0662289 -0.0579109 0
0.0821247 -0.0458009 0
-0.0662289 -0.0579109 0
0.0283517 -0.0167286 0
-0.042269 -0.0402149 0
0.0283517 -0.0167286 0
-0.042269 -0.0402149 0
-0.010193 -0.0270177 0
-0.011855 -0.0125794 0
-0.00168928 -0.0249396 0
0.0207514 -0.0158414 0
-0.00256333 -0.0182263 0
0.0357619 -0.0113755 0
-0.00256333 -0.0182263 0
0.0357619 -0.0113755 0
0.00345832 0.0120132 0
0.0344903 0.0105804 0
0.00345832 0.0120132 0
0.0344903 0.0105804 0
0.00748656 0.0159675 0
0.0171459 0.000870737 0
0.00748656 0.0159675 0
0.0171459 0.000870737 0
-0.0201235 0.0498333 0
0.00800716 0.0226664 0
0.006625 0.0210721 0
0.0152873 0.0227728 0
0.003439 0.0117514 0
0.0107084 0.0133606 0
0.0152873 0.0227728 0
0.0206044 0.0157784 0
0.0107084 0.0133606 0
0.0195644 0.00884563 0
0.003439 0.0117514 0
0.0107084 0.0133606 0
0.0519784 -0.00335797 0
0.0740128 -0.00500804 0
0.0107084 0.0133606 0
0.0195644 0.00884563 0
0.0740128 -0.00500804 0
0.0929007 -0.00488338 0
0.0206044 0.0157784 0
0.0276205 0.0131734 0
0.0195644 0.00884563 0
0.0248751 0.00597382 0
0.0276205 0.0131734 0
0.0356922 0.0115509 0
0.0248751 0.00597382 0
0.0295725 0.00419128 0
0.0195644 0.00884563 0
0.0248751 0.00597382 0
0.0929007 -0.00488338 0
0.109245 -0.0057528 0
0.0248751 0.00597382 0
0.0295725 0.00419128 0
0.109245 -0.0057528 0
0.123154 -0.00633174 0
0.0356922 0.0115509 0
0.0396629 0.001441 0
0.0295725 0.00419128 0
0.0329313 0.000756301 0
0.0396629 0.001441 0
0.0345548 -0.0104033 0
0.0329313 0.000756301 0
0.0325644 -0.00267905 0
0.0295725 0.00419128 0
0.0329313 0.000756301 0
0.123154 -0.00633174 0
0.135269 -0.00746753 0
0.0329313 0.000756301 0
0.0325644 -0.00267905 0
0.135269 -0.00746753 0
0.146118 -0.0074538 0
0.0345548 -0.0104033 0
0.0254915 -0.00679179 0
0.0325644 -0.00267905 0
0.031504 -0.00233197 0
0.0254915 -0.00679179 0
0.0173746 -0.000952419 0
0.031504 -0.00233197 0
0.0353349 -0.000176562 0
0.0325644 -0.00267905 0
0.031504 -0.00233197 0
0.146118 -0.0074538 0
0.155761 -0.00848434 0
0.031504 -0.00233197 0
0.0353349 -0.000176562 0
0.155761 -0.00848434 0
0.163861 -0.00890775 0
0.0173746 -0.000952419 0
0.0111593 -0.010157 0
0.0353349 -0.000176562 0
0.0384149 -0.00695373 0
0.0111593 -0.010157 0
0.00814637 -0.0227259 0
0.0384149 -0.00695373 0
0.0307718 -0.0129631 0
0.0353349 -0.000176562 0
0.0384149 -0.00695373 0
0.163861 -0.00890775 0
0.170519 -0.0103227 0
0.0384149 -0.00695373 0
0.0307718 -0.0129631 0
0.170519 -0.0103227 0
0.176337 -0.00769564 0
0.0519838 0.00336453 0
0.240495 0.0132453 0
0.0740433 0.00500689 0
0.233466 0.0122602 0
0.240495 0.0132453 0
0.157993 0.00657827 0
0.233466 0.0122602 0
0.153878 0.00622405 0
0.0740433 0.00500689 0
0.233466 0.0122602 0
0.0929583 0.00488244 0
0.226873 0.0112005 0
0.233466 0.0122602 0
0.153878 0.00622405 0
0.226873 0.0112005 0
0.150221 0.0056619 0
0.0929583 0.00488244 0
0.226873 0.0112005 0
0.10933 0.00576181 0
0.220605 0.010202 0
0.226873 0.0112005 0
0.150221 0.0056619 0
0.220605 0.010202 0
0.147018 0.00528415 0
0.10933 0.00576181 0
0.220605 0.010202 0
0.123271 0.00635295 0
0.214574 0.00996426 0
0.220605 0.010202 0
0.147018 0.00528415 0
0.214574 0.00996426 0
0.144124 0.00513212 0
0.123271 0.00635295 0
0.214574 0.00996426 0
0.135411 0.00750816 0
0.208563 0.00951439 0
0.214574 0.00996426 0
0.144124 0.00513212 0
0.208563 0.00951439 0
0.141497 0.00494147 0
0.135411 0.00750816 0
0.208563 0.00951439 0
0.146281 0.00749303 0
0.202407 0.00944367 0
0.208563 0.00951439 0
0.141497 0.00494147 0
0.202407 0.00944367 0
0.139104 0.00476513 0
0.146281 0.00749303 0
0.202407 0.00944367 0
0.155945 0.00852113 0
0.196095 0.00898016 0
0.202407 0.00944367 0
0.139104 0.00476513 0
0.196095 0.00898016 0
0.136913 0.004534 0
0.155945 0.00852113 0
0.196095 0.00898016 0
0.16406 0.00894122 0
0.189803 0.00939404 0
0.196095 0.00898016 0
0.136913 0.004534 0
0.189803 0.00939404 0
0.134825 0.00474547 0
0.16406 0.00894122 0
0.189803 0.00939404 0
0.170725 0.0103606 0
0.183419 0.00873044 0
0.189803 0.00939404 0
0.134825 0.00474547 0
0.183419 0.00873044 0
0.132913 0.00407976 0
0.170725 0.0103606 0
0.183419 0.00873044 0
0.176546 0.00772032 0
0.176994 0.00752895 0
0.183419 0.00873044 0
0.132913 0.00407976 0
0.176994 0.00752895 0
0.131382 0.00332452 0
0.158229 -0.00658533 0
0.240432 -0.0132407 0
0.154108 -0.00623041 0
0.233426 -0.0122597 0
0.240432 -0.0132407 0
0.0519784 -0.00335797 0
0.233426 -0.0122597 0
0.0740128 -0.00500804 0
0.154108 -0.00623041 0
0.233426 -0.0122597 0
0.150444 -0.0056653 0
0.226852 -0.0111979 0
0.233426 -0.0122597 0
0.0740128 -0.00500804 0
0.226852 -0.0111979 0
0.0929007 -0.00488338 0
0.150444 -0.0056653 0
0.226852 -0.0111979 0
0.147235 -0.00528366 0
0.220605 -0.0101934 0
0.226852 -0.0111979 0
0.0929007 -0.00488338 0
0.220605 -0.0101934 0
0.109245 -0.0057528 0
0.147235 -0.00528366 0
0.220605 -0.0101934 0
0.144336 -0.00512763 0
0.214603 -0.0099449 0
0.220605 -0.0101934 0
0.109245 -0.0057528 0
0.214603 -0.0099449 0
0.123154 -0.00633174 0
0.144336 -0.00512763 0
0.214603 -0.0099449 0
0.141706 -0.00493419 0
0.208627 -0.00948985 0
0.214603 -0.0099449 0
0.123154 -0.00633174 0
0.208627 -0.00948985 0
0.135269 -0.00746753 0
0.141706 -0.00493419 0
0.208627 -0.00948985 0
0.139308 -0.00475737 0
0.20251 -0.00941684 0
0.208627 -0.00948985 0
0.135269 -0.00746753 0
0.20251 -0.00941684 0
0.146118 -0.0074538 0
0.139308 -0.00475737 0
0.20251 -0.00941684 0
0.137111 -0.00452733 0
0.196238 -0.00895905 0
0.20251 -0.00941684 0
0.146118 -0.0074538 0
0.196238 -0.00895905 0
0.155761 -0.00848434 0
0.137111 -0.00452733 0
0.196238 -0.00895905 0
0.135014 -0.00473765 0
0.189982 -0.00937419 0
0.196238 -0.00895905 0
0.155761 -0.00848434 0
0.189982 -0.00937419 0
0.163861 -0.00890775 0
0.135014 -0.00473765 0
0.189982 -0.00937419 0
0.13309 -0.00407824 0
0.183632 -0.00871774 0
0.189982 -0.00937419 0
0.163861 -0.00890775 0
0.183632 -0.00871774 0
0.170519 -0.0103227 0
0.13309 -0.00407824 0
0.183632 -0.00871774 0
0.131547 -0.00332449 0
0.17724 -0.00751984 0
0.183632 -0.00871774 0
0.170519 -0.0103227 0
0.17724 -0.00751984 0
0.176337 -0.00769564 0
0.00672992 -0.0212493 0
0.00347541 -0.0118374 0
0.0154348 -0.0229145 0
0.0108493 -0.0134223 0
0.00347541 -0.0118374 0
0.0519838 0.00336453 0
0.0108493 -0.0134223 0
0.0740433 0.00500689 0
0.0154348 -0.0229145 0
0.0108493 -0.0134223 0
0.0207514 -0.0158414 0
0.0197773 -0.00890581 0
0.0108493 -0.0134223 0
0.0740433 0.00500689 0
0.0197773 -0.00890581 0
0.0929583 0.00488244 0
0.0207514 -0.0158414 0
0.0197773 -0.00890581 0
0.0277155 -0.0131183 0
0.0251049 -0.00596256 0
0.0197773 -0.00890581 0
0.0929583 0.00488244 0
0.0251049 -0.00596256 0
0.10933 0.00576181 0
0.0277155 -0.0131183 0
0.0251049 -0.00596256 0
0.0357619 -0.0113755 0
0.0297112 -0.0041069 0
0.0251049 -0.00596256 0
0.10933 0.00576181 0
0.0297112 -0.0041069 0
0.123271 0.00635295 0
0.0357619 -0.0113755 0
0.0297112 -0.0041069 0
0.0396941 -0.0012657 0
0.0329499 -0.000671948 0
0.0297112 -0.0041069 0
0.123271 0.00635295 0
0.0329499 -0.000671948 0
0.135411 0.00750816 0
0.0396941 -0.0012657 0
0.0329499 -0.000671948 0
0.0344903 0.0105804 0
0.0325008 0.00274389 0
0.0329499 -0.000671948 0
0.135411 0.00750816 0
0.0325008 0.00274389 0
0.146281 0.00749303 0
0.0344903 0.0105804 0
0.0325008 0.00274389 0
0.0253237 0.00685022 0
0.0314085 0.00235254 0
0.0325008 0.00274389 0
0.146281 0.00749303 0
0.0314085 0.00235254 0
0.155945 0.00852113 0
0.0253237 0.00685022 0
0.0314085 0.00235254 0
0.0171459 0.000870737 0
0.0352972 0.000137998 0
0.0314085 0.00235254 0
0.155945 0.00852113 0
0.0352972 0.000137998 0
0.16406 0.00894122 0
0.0171459 0.000870737 0
0.0352972 0.000137998 0
0.0109325 0.010068 0
0.038474 0.00694207 0
0.0352972 0.000137998 0
0.16406 0.00894122 0
0.038474 0.00694207 0
0.170725 0.0103606 0
0.0109325 0.010068 0
0.038474 0.00694207 0
0.00800716 0.0226664 0
0.0308765 0.0129825 0
0.038474 0.00694207 0
0.170725 0.0103606 0
0.0308765 0.0129825 0
0.176546 0.00772032 0
0 0 0
-0.00035371 0.0146151 0
0 0 0
0.00119636 0.013883 0
-0.00035371 0.0146151 0
-0.00156583 0.0285138 0
0.00119636 0.013883 0
0.00275983 0.0290236 0
0 0 0
0.00119636 0.013883 0
0 0 0
9.43662e-05 0.012662 0
0.00119636 0.013883 0
0.00275983 0.0290236 0
9.43662e-05 0.012662 0
0.006625 0.0210721 0
-0.00156583 0.0285138 0
-0.00242416 0.0266445 0
0.00275983 0.0290236 0
0.00396156 0.025994 0
-0.00242416 0.0266445 0
-0.00171901 0.0248924 0
0.00396156 0.025994 0
0.00665325 0.021795 0
0.00275983 0.0290236 0
0.00396156 0.025994 0
0.006625 0.0210721 0
0.0152873 0.0227728 0
0.00396156 0.025994 0
0.00665325 0.021795 0
0.0152873 0.0227728 0
0.0206044 0.0157784 0
-0.0201618 -0.0498385 0
-0.0427313 -0.0676334 0
-0.00962298 -0.0302518 0
-0.0305997 -0.0364785 0
-0.0427313 -0.0676334 0
-0.0672584 -0.0821483 0
-0.0305997 -0.0364785 0
-0.061752 -0.0486666 0
-0.00962298 -0.0302518 0
-0.0305997 -0.0364785 0
0.00814637 -0.0227259 0
-0.00413746 -0.00478837 0
-0.0305997 -0.0364785 0
-0.061752 -0.0486666 0
-0.00413746 -0.00478837 0
-0.0380796 -0.0049785 0
0.00814637 -0.0227259 0
-0.00413746 -0.00478837 0
0.0307718 -0.0129631 0
0.028866 0.00167138 0
-0.00413746 -0.00478837 0
-0.0380796 -0.0049785 0
0.028866 0.00167138 0
0.0458346 0.00821527 0
0.0307718 -0.0129631 0
0.028866 0.00167138 0
0.176337 -0.00769564 0
0.180775 -0.00706647 0
0.028866 0.00167138 0
0.0458346 0.00821527 0
0.180775 -0.00706647 0
0.182461 -0.00469018 0
-0.0672584 -0.0821483 0
-0.0802369 -0.0102197 0
-0.061752 -0.0486666 0
-0.0760442 -0.0107307 0
-0.0802369 -0.0102197 0
-0.0662175 0.0579023 0
-0.0760442 -0.0107307 0
-0.0626605 0.025957 0
-0.061752 -0.0486666 0
-0.0760442 -0.0107307 0
-0.0380796 -0.0049785 0
-0.0430012 -0.0311088 0
-0.0760442 -0.0107307 0
-0.0626605 0.025957 0
-0.0430012 -0.0311088 0
-0.0391083 0.0254046 0
-0.0662175 0.0579023 0
-0.0459075 0.0485234 0
-0.0626605 0.025957 0
-0.0481785 0.0397703 0
-0.0459075 0.0485234 0
-0.0422617 0.040336 0
-0.0481785 0.0397703 0
-0.0329333 0.0269903 0
-0.0626605 0.025957 0
-0.0481785 0.0397703 0
-0.0391083 0.0254046 0
-0.0425953 0.0278818 0
-0.0481785 0.0397703 0
-0.0329333 0.0269903 0
-0.0425953 0.0278818 0
-0.0227897 -0.00191399 0
-0.0422617 0.040336 0
-0.0372962 0.0271924 0
-0.0329333 0.0269903 0
-0.00165666 -0.00187438 0
-0.0372962 0.0271924 0
-0.0118422 0.0123335 0
-0.00165666 -0.00187438 0
0.0135987 -0.00659375 0
-0.0329333 0.0269903 0
-0.00165666 -0.00187438 0
-0.0227897 -0.00191399 0
-0.0232523 -0.00869337 0
-0.00165666 -0.00187438 0
0.0135987 -0.00659375 0
-0.0232523 -0.00869337 0
-0.0295639 -0.00989964 0
0 0 0
0 0 0
-0.0030055 0.00666925 0
-0.0381526 0.0341782 0
0 0 0
0 0 0
-0.0381526 0.0341782 0
-0.0374327 -0.0338753 0
-0.0030055 0.00666925 0
-0.0381526 0.0341782 0
-0.0102959 0.0268952 0
0.0127099 0.02801 0
-0.0381526 0.0341782 0
-0.0374327 -0.0338753 0
0.0127099 0.02801 0
0.0145467 -0.0299301 0
-0.0102959 0.0268952 0
0.0127099 0.02801 0
-0.0113303 0.0368552 0
0.00724501 -0.0293764 0
0.0127099 0.02801 0
0.0145467 -0.0299301 0
0.00724501 -0.0293764 0
-0.00337742 0.0369836 0
-0.0113303 0.0368552 0
0.00724501 -0.0293764 0
-0.0118422 0.0123335 0
-0.00644308 -0.0309704 0
0.00724501 -0.0293764 0
-0.00337742 0.0369836 0
-0.00644308 -0.0309704 0
-0.0205699 0.0665834 0
-0.0118422 0.0123335 0
-0.00644308 -0.0309704 0
0.0135987 -0.00659375 0
-0.00989625 0.00859459 0
-0.00644308 -0.0309704 0
-0.0205699 0.0665834 0
-0.00989625 0.00859459 0
-0.0209138 0.0558035 0
0.0135987 -0.00659375 0
-0.00989625 0.00859459 0
-0.0295639 -0.00989964 0
-0.0113023 0.0178917 0
-0.00989625 0.00859459 0
-0.0209138 0.0558035 0
-0.0113023 0.0178917 0
0.0097281 0.0350201 0
0 0 0
0 0 0
-0.0374327 -0.0338753 0
-0.01814 0.010266 0
0 0 0
0 0 0
-0.01814 0.010266 0
-0.023005 -0.00370221 0
-0.0374327 -0.0338753 0
-0.01814 0.010266 0
0.0145467 -0.0299301 0
-0.0291276 0.033591 0
-0.01814 0.010266 0
-0.023005 -0.00370221 0
-0.0291276 0.033591 0
-0.0440651 -0.00224116 0
0.0145467 -0.0299301 0
-0.0291276 0.033591 0
-0.00337742 0.0369836 0
-0.0283162 0.0465865 0
-0.0291276 0.033591 0
-0.0440651 -0.00224116 0
-0.0283162 0.0465865 0
-0.0267914 0.00130373 0
-0.00337742 0.0369836 0
-0.0283162 0.0465865 0
-0.0205699 0.0665834 0
-0.00361349 0.0261994 0
-0.0283162 0.0465865 0
-0.0267914 0.00130373 0
-0.00361349 0.0261994 0
0.0180346 -0.00521519 0
-0.0205699 0.0665834 0
-0.00361349 0.0261994 0
-0.0209138 0.0558035 0
-0.0160724 0.0114165 0
-0.00361349 0.0261994 0
0.0180346 -0.00521519 0
-0.0160724 0.0114165 0
-0.0157242 -0.0159344 0
-0.0209138 0.0558035 0
-0.0160724 0.0114165 0
0.0097281 0.0350201 0
0.0202593 0.0138455 0
-0.0160724 0.0114165 0
-0.0157242 -0.0159344 0
0.0202593 0.0138455 0
0.00538145 -0.00151445 0
0 0 0
0 0 0
-0.023005 -0.00370221 0
-0.0168434 -0.00405039 0
0 0 0
0 0 0
-0.0168434 -0.00405039 0
-0.00399411 -0.0106712 0
-0.023005 -0.00370221 0
-0.0168434 -0.00405039 0
-0.0440651 -0.00224116 0
-0.0420886 -0.0156804 0
-0.0168434 -0.00405039 0
-0.00399411 -0.0106712 0
-0.0420886 -0.0156804 0
-0.028483 -0.0293865 0
-0.0440651 -0.00224116 0
-0.0420886 -0.0156804 0
-0.0267914 0.00130373 0
-0.0303189 -0.017762 0
-0.0420886 -0.0156804 0
-0.028483 -0.0293865 0
-0.0303189 -0.017762 0
-0.0309896 -0.0423408 0
-0.0267914 0.00130373 0
-0.0303189 -0.017762 0
0.0180346 -0.00521519 0
0.0102862 0.00145094 0
-0.0303189 -0.017762 0
-0.0309896 -0.0423408 0
0.0102862 0.00145094 0
-0.0107709 -0.0362882 0
0.0180346 -0.00521519 0
0.0102862 0.00145094 0
-0.0157242 -0.0159344 0
-0.00399464 0.00749363 0
0.0102862 0.00145094 0
-0.0107709 -0.0362882 0
-0.00399464 0.00749363 0
-0.000726336 -0.0216254 0
-0.0157242 -0.0159344 0
-0.00399464 0.00749363 0
0.00538145 -0.00151445 0
0.00133118 -0.0165831 0
-0.00399464 0.00749363 0
-0.000726336 -0.0216254 0
0.00133118 -0.0165831 0
0.00270888 -0.00319234 0
0 0 0
0 0 0
-0.00399411 -0.0106712 0
0.00266227 0.00293008 0
0 0 0
0 0 0
0.00266227 0.00293008 0
0 0 0
-0.00399411 -0.0106712 0
0.00266227 0.00293008 0
-0.028483 -0.0293865 0
-0.0106859 -0.00672046 0
0.00266227 0.00293008 0
0 0 0
-0.0106859 -0.00672046 0
0 0 0
-0.028483 -0.0293865 0
-0.0106859 -0.00672046 0
-0.0309896 -0.0423408 0
-0.0132857 -0.0352444 0
-0.0106859 -0.00672046 0
0 0 0
-0.0132857 -0.0352444 0
0 0 0
-0.0309896 -0.0423408 0
-0.0132857 -0.0352444 0
-0.0107709 -0.0362882 0
-0.00998902 -0.0626925 0
-0.0132857 -0.0352444 0
0 0 0
-0.00998902 -0.0626925 0
0 0 0
-0.0107709 -0.0362882 0
-0.00998902 -0.0626925 0
-0.000726336 -0.0216254 0
-0.00207963 -0.0769284 0
-0.00998902 -0.0626925 0
0 0 0
-0.00207963 -0.0769284 0
0 0 0
-0.000726336 -0.0216254 0
-0.00207963 -0.0769284 0
0.00270888 -0.00319234 0
-0.00534048 -0.0855995 0
-0.00207963 -0.0769284 0
0 0 0
-0.00534048 -0.0855995 0
0 0 0
0.176546 0.00772032 0
0.176994 0.00752895 0
0.180984 0.00709338 0
0.171613 0.00568189 0
0.176994 0.00752895 0
0.131382 0.00332452 0
0.171613 0.00568189 0
0.130214 0.00259048 0
0.180984 0.00709338 0
0.171613 0.00568189 0
0.182658 0.00470288 0
0.168392 0.00370177 0
0.171613 0.00568189 0
0.130214 0.00259048 0
0.168392 0.00370177 0
0.129085 0.00182198 0
0.166072 0.00679928 0
0.107479 0.00596818 0
0.162026 0.00664957 0
0.110052 0.00577482 0
0.107479 0.00596818 0
0.227895 4.35698e-06 0
0.110052 0.00577482 0
0.21532 4.11151e-06 0
0.162026 0.00664957 0
0.110052 0.00577482 0
0.157993 0.00657827 0
0.112191 0.00527882 0
0.110052 0.00577482 0
0.21532 4.11151e-06 0
0.112191 0.00527882 0
0.203843 4.0402e-06 0
0.157993 0.00657827 0
0.112191 0.00527882 0
0.153878 0.00622405 0
0.114152 0.00502968 0
0.112191 0.00527882 0
0.203843 4.0402e-06 0
0.114152 0.00502968 0
0.193271 4.00909e-06 0
0.153878 0.00622405 0
0.114152 0.00502968 0
0.150221 0.0056619 0
0.115856 0.00455179 0
0.114152 0.00502968 0
0.193271 4.00909e-06 0
0.115856 0.00455179 0
0.183593 4.42509e-06 0
0.150221 0.0056619 0
0.115856 0.00455179 0
0.147018 0.00528415 0
0.117275 0.00431943 0
0.115856 0.00455179 0
0.183593 4.42509e-06 0
0.117275 0.00431943 0
0.174829 4.96229e-06 0
0.147018 0.00528415 0
0.117275 0.00431943 0
0.144124 0.00513212 0
0.118377 0.00391233 0
0.117275 0.00431943 0
0.174829 4.96229e-06 0
0.118377 0.00391233 0
0.166973 5.33776e-06 0
0.144124 0.00513212 0
0.118377 0.00391233 0
0.141497 0.00494147 0
0.11912 0.00385618 0
0.118377 0.00391233 0
0.166973 5.33776e-06 0
0.11912 0.00385618 0
0.159935 5.84565e-06 0
0.141497 0.00494147 0
0.11912 0.00385618 0
0.139104 0.00476513 0
0.119516 0.00343515 0
0.11912 0.00385618 0
0.159935 5.84565e-06 0
0.119516 0.00343515 0
0.153578 5.53701e-06 0
0.139104 0.00476513 0
0.119516 0.00343515 0
0.136913 0.004534 0
0.119566 0.00345141 0
0.119516 0.00343515 0
0.153578 5.53701e-06 0
0.119566 0.00345141 0
0.147885 6.57889e-06 0
0.136913 0.004534 0
0.119566 0.00345141 0
0.134825 0.00474547 0
0.119336 0.00308697 0
0.119566 0.00345141 0
0.147885 6.57889e-06 0
0.119336 0.00308697 0
0.142865 6.06051e-06 0
0.134825 0.00474547 0
0.119336 0.00308697 0
0.132913 0.00407976 0
0.118978 0.00308453 0
0.119336 0.00308697 0
0.142865 6.06051e-06 0
0.118978 0.00308453 0
0.138368 4.28738e-06 0
0.132913 0.00407976 0
0.118978 0.00308453 0
0.131382 0.00332452 0
0.118664 0.00234968 0