# vtk DataFile Version 3.0
#This file was generated by the deal.II library on 2026/3/26 at 11:13:55
ASCII
DATASET UNSTRUCTURED_GRID

POINTS 3648 double
0 0 0
0.214286 0 0
0 0.25 0
0.214286 0.25 0
0 0.25 0
0.214286 0.25 0
0 0.5 0
0.214286 0.5 0
0.214286 0 0
0.428571 0 0
0.214286 0.25 0
0.428571 0.25 0
0.214286 0.25 0
0.428571 0.25 0
0.214286 0.5 0
0.428571 0.5 0
0.428571 0 0
0.642857 0 0
0.428571 0.25 0
0.642857 0.25 0
0.428571 0.25 0
0.642857 0.25 0
0.428571 0.5 0
0.642857 0.5 0
0.428571 0.5 0
0.642857 0.5 0
0.428571 0.75 0
0.642857 0.75 0
0.642857 0 0
0.857143 0 0
0.642857 0.25 0
0.857143 0.25 0
0.642857 0.25 0
0.857143 0.25 0
0.642857 0.5 0
0.857143 0.5 0
0.642857 0.5 0
0.857143 0.5 0
0.642857 0.75 0
0.857143 0.75 0
0.857143 0 0
1.07143 0 0
0.857143 0.25 0
1.07143 0.25 0
0.857143 0.25 0
1.07143 0.25 0
0.857143 0.5 0
1.07143 0.5 0
0.857143 0.5 0
1.07143 0.5 0
0.857143 0.75 0
1.07143 0.75 0
1.07143 0 0
1.28571 0 0
1.07143 0.25 0
1.28571 0.25 0
1.07143 0.25 0
1.28571 0.25 0
1.07143 0.5 0
1.28571 0.5 0
1.07143 0.5 0
1.28571 0.5 0
1.07143 0.75 0
1.28571 0.75 0
1.28571 0 0
1.5 0 0
1.28571 0.25 0
1.5 0.25 0
1.28571 0.25 0
1.5 0.25 0
1.28571 0.5 0
1.5 0.5 0
1.5 0 0
1.71429 0 0
1.5 0.25 0
1.71429 0.25 0
1.5 0.25 0
1.71429 0.25 0
1.5 0.5 0
1.71429 0.5 0
1.71429 0 0
1.92857 0 0
1.71429 0.25 0
1.92857 0.25 0
1.71429 0.25 0
1.92857 0.25 0
1.71429 0.5 0
1.92857 0.5 0
1.92857 0 0
2.14286 0 0
1.92857 0.25 0
2.14286 0.25 0
1.92857 0.25 0
2.14286 0.25 0
1.92857 0.5 0
2.14286 0.5 0
0 3 0
0 2.75 0
0.214286 3 0
0.214286 2.75 0
0.214286 3 0
0.214286 2.75 0
0.428571 3 0
0.428571 2.75 0
0.428571 3 0
0.428571 2.75 0
0.642857 3 0
0.642857 2.75 0
0.642857 3 0
0.642857 2.75 0
0.857143 3 0
0.857143 2.75 0
0.857143 3 0
0.857143 2.75 0
1.07143 3 0
1.07143 2.75 0
1.07143 3 0
1.07143 2.75 0
1.28571 3 0
1.28571 2.75 0
1.28571 3 0
1.28571 2.75 0
1.5 3 0
1.5 2.75 0
1.5 3 0
1.5 2.75 0
1.71429 3 0
1.71429 2.75 0
1.71429 3 0
1.71429 2.75 0
1.92857 3 0
1.92857 2.75 0
1.92857 3 0
1.92857 2.75 0
2.14286 3 0
2.14286 2.75 0
0 2.75 0
0 2.5 0
0.214286 2.75 0
0.214286 2.5 0
0.214286 2.75 0
0.214286 2.5 0
0.428571 2.75 0
0.428571 2.5 0
0.428571 2.75 0
0.428571 2.5 0
0.642857 2.75 0
0.642857 2.5 0
0.642857 2.75 0
0.642857 2.5 0
0.857143 2.75 0
0.857143 2.5 0
0.857143 2.75 0
0.857143 2.5 0
1.07143 2.75 0
1.07143 2.5 0
1.07143 2.75 0
1.07143 2.5 0
1.28571 2.75 0
1.28571 2.5 0
1.28571 2.75 0
1.28571 2.5 0
1.5 2.75 0
1.5 2.5 0
1.5 2.75 0
1.5 2.5 0
1.71429 2.75 0
1.71429 2.5 0
1.71429 2.75 0
1.71429 2.5 0
1.92857 2.75 0
1.92857 2.5 0
1.92857 2.75 0
1.92857 2.5 0
2.14286 2.75 0
2.14286 2.5 0
0.428571 2.5 0
0.428571 2.25 0
0.642857 2.5 0
0.642857 2.25 0
0.642857 2.5 0
0.642857 2.25 0
0.857143 2.5 0
0.857143 2.25 0
0.857143 2.5 0
0.857143 2.25 0
1.07143 2.5 0
1.07143 2.25 0
1.07143 2.5 0
1.07143 2.25 0
1.28571 2.5 0
1.28571 2.25 0
0.214286 0.75 0
0.321429 0.75 0
0.214286 0.875 0
0.321429 0.875 0
0.321429 0.75 0
0.428571 0.75 0
0.321429 0.875 0
0.428571 0.875 0
0.214286 0.875 0
0.321429 0.875 0
0.214286 1 0
0.321429 1 0
0.321429 0.875 0
0.428571 0.875 0
0.321429 1 0
0.428571 1 0
0.428571 0.75 0
0.535714 0.75 0
0.428571 0.875 0
0.535714 0.875 0
0.535714 0.75 0
0.642857 0.75 0
0.535714 0.875 0
0.642857 0.875 0
0.428571 0.875 0
0.535714 0.875 0
0.428571 1 0
0.535714 1 0
0.535714 0.875 0
0.642857 0.875 0
0.535714 1 0
0.642857 1 0
0.642857 0.75 0
0.75 0.75 0
0.642857 0.875 0
0.75 0.875 0
0.75 0.75 0
0.857143 0.75 0
0.75 0.875 0
0.857143 0.875 0
0.642857 0.875 0
0.75 0.875 0
0.642857 1 0
0.75 1 0
0.75 0.875 0
0.857143 0.875 0
0.75 1 0
0.857143 1 0
0.857143 0.75 0
0.964286 0.75 0
0.857143 0.875 0
0.964286 0.875 0
0.964286 0.75 0
1.07143 0.75 0
0.964286 0.875 0
1.07143 0.875 0
0.857143 0.875 0
0.964286 0.875 0
0.857143 1 0
0.964286 1 0
0.964286 0.875 0
1.07143 0.875 0
0.964286 1 0
1.07143 1 0
1.07143 0.75 0
1.17857 0.75 0
1.07143 0.875 0
1.17857 0.875 0
1.17857 0.75 0
1.28571 0.75 0
1.17857 0.875 0
1.28571 0.875 0
1.07143 0.875 0
1.17857 0.875 0
1.07143 1 0
1.17857 1 0
1.17857 0.875 0
1.28571 0.875 0
1.17857 1 0
1.28571 1 0
0.214286 2 0
0.214286 1.875 0
0.321429 2 0
0.321429 1.875 0
0.214286 1.875 0
0.214286 1.75 0
0.321429 1.875 0
0.321429 1.75 0
0.321429 2 0
0.321429 1.875 0
0.428571 2 0
0.428571 1.875 0
0.321429 1.875 0
0.321429 1.75 0
0.428571 1.875 0
0.428571 1.75 0
0.428571 2 0
0.428571 1.875 0
0.535714 2 0
0.535714 1.875 0
0.428571 1.875 0
0.428571 1.75 0
0.535714 1.875 0
0.535714 1.75 0
0.535714 2 0
0.535714 1.875 0
0.642857 2 0
0.642857 1.875 0
0.535714 1.875 0
0.535714 1.75 0
0.642857 1.875 0
0.642857 1.75 0
0.642857 2 0
0.642857 1.875 0
0.75 2 0
0.75 1.875 0
0.642857 1.875 0
0.642857 1.75 0
0.75 1.875 0
0.75 1.75 0
0.75 2 0
0.75 1.875 0
0.857143 2 0
0.857143 1.875 0
0.75 1.875 0
0.75 1.75 0
0.857143 1.875 0
0.857143 1.75 0
0.857143 2 0
0.857143 1.875 0
0.964286 2 0
0.964286 1.875 0
0.857143 1.875 0
0.857143 1.75 0
0.964286 1.875 0
0.964286 1.75 0
0.964286 2 0
0.964286 1.875 0
1.07143 2 0
1.07143 1.875 0
0.964286 1.875 0
0.964286 1.75 0
1.07143 1.875 0
1.07143 1.75 0
1.07143 2 0
1.07143 1.875 0
1.17857 2 0
1.17857 1.875 0
1.07143 1.875 0
1.07143 1.75 0
1.17857 1.875 0
1.17857 1.75 0
1.17857 2 0
1.17857 1.875 0
1.28571 2 0
1.28571 1.875 0
1.17857 1.875 0
1.17857 1.75 0
1.28571 1.875 0
1.28571 1.75 0
0.214286 1.25 0
0.214286 1.125 0
0.321429 1.25 0
0.321429 1.125 0
0.214286 1.125 0
0.214286 1 0
0.321429 1.125 0
0.321429 1 0
0.321429 1.25 0
0.321429 1.125 0
0.428571 1.25 0
0.428571 1.125 0
0.321429 1.125 0
0.321429 1 0
0.428571 1.125 0
0.428571 1 0
0.428571 1.25 0
0.428571 1.125 0
0.535714 1.25 0
0.535714 1.125 0
0.428571 1.125 0
0.428571 1 0
0.535714 1.125 0
0.535714 1 0
0.535714 1.25 0
0.535714 1.125 0
0.642857 1.25 0
0.642857 1.125 0
0.535714 1.125 0
0.535714 1 0
0.642857 1.125 0
0.642857 1 0
0.642857 1.25 0
0.642857 1.125 0
0.75 1.25 0
0.75 1.125 0
0.642857 1.125 0
0.642857 1 0
0.75 1.125 0
0.75 1 0
0.75 1.25 0
0.75 1.125 0
0.857143 1.25 0
0.857143 1.125 0
0.75 1.125 0
0.75 1 0
0.857143 1.125 0
0.857143 1 0
0.857143 1.25 0
0.857143 1.125 0
0.964286 1.25 0
0.964286 1.125 0
0.857143 1.125 0
0.857143 1 0
0.964286 1.125 0
0.964286 1 0
0.964286 1.25 0
0.964286 1.125 0
1.07143 1.25 0
1.07143 1.125 0
0.964286 1.125 0
0.964286 1 0
1.07143 1.125 0
1.07143 1 0
1.07143 1.25 0
1.07143 1.125 0
1.17857 1.25 0
1.17857 1.125 0
1.07143 1.125 0
1.07143 1 0
1.17857 1.125 0
1.17857 1 0
1.17857 1.25 0
1.17857 1.125 0
1.28571 1.25 0
1.28571 1.125 0
1.17857 1.125 0
1.17857 1 0
1.28571 1.125 0
1.28571 1 0
0.214286 2.25 0
0.214286 2.125 0
0.321429 2.25 0
0.321429 2.125 0
0.214286 2.125 0
0.214286 2 0
0.321429 2.125 0
0.321429 2 0
0.321429 2.25 0
0.321429 2.125 0
0.428571 2.25 0
0.428571 2.125 0
0.321429 2.125 0
0.321429 2 0
0.428571 2.125 0
0.428571 2 0
0.428571 2.25 0
0.428571 2.125 0
0.535714 2.25 0
0.535714 2.125 0
0.428571 2.125 0
0.428571 2 0
0.535714 2.125 0
0.535714 2 0
0.535714 2.25 0
0.535714 2.125 0
0.642857 2.25 0
0.642857 2.125 0
0.535714 2.125 0
0.535714 2 0
0.642857 2.125 0
0.642857 2 0
0.642857 2.25 0
0.642857 2.125 0
0.75 2.25 0
0.75 2.125 0
0.642857 2.125 0
0.642857 2 0
0.75 2.125 0
0.75 2 0
0.75 2.25 0
0.75 2.125 0
0.857143 2.25 0
0.857143 2.125 0
0.75 2.125 0
0.75 2 0
0.857143 2.125 0
0.857143 2 0
0.857143 2.25 0
0.857143 2.125 0
0.964286 2.25 0
0.964286 2.125 0
0.857143 2.125 0
0.857143 2 0
0.964286 2.125 0
0.964286 2 0
0.964286 2.25 0
0.964286 2.125 0
1.07143 2.25 0
1.07143 2.125 0
0.964286 2.125 0
0.964286 2 0
1.07143 2.125 0
1.07143 2 0
1.07143 2.25 0
1.07143 2.125 0
1.17857 2.25 0
1.17857 2.125 0
1.07143 2.125 0
1.07143 2 0
1.17857 2.125 0
1.17857 2 0
1.17857 2.25 0
1.17857 2.125 0
1.28571 2.25 0
1.28571 2.125 0
1.17857 2.125 0
1.17857 2 0
1.28571 2.125 0
1.28571 2 0
0 0.5 0
0.107143 0.5 0
0 0.625 0
0.107143 0.625 0
0.107143 0.5 0
0.214286 0.5 0
0.107143 0.625 0
0.214286 0.625 0
0 0.625 0
0.107143 0.625 0
0 0.75 0
0.107143 0.75 0
0.107143 0.625 0
0.214286 0.625 0
0.107143 0.75 0
0.214286 0.75 0
0.214286 0.5 0
0.321429 0.5 0
0.214286 0.625 0
0.321429 0.625 0
0.321429 0.5 0
0.428571 0.5 0
0.321429 0.625 0
0.428571 0.625 0
0.214286 0.625 0
0.321429 0.625 0
0.214286 0.75 0
0.321429 0.75 0
0.321429 0.625 0
0.428571 0.625 0
0.321429 0.75 0
0.428571 0.75 0
1.28571 0.5 0
1.39286 0.5 0
1.28571 0.625 0
1.39286 0.625 0
1.39286 0.5 0
1.5 0.5 0
1.39286 0.625 0
1.5 0.625 0
1.28571 0.625 0
1.39286 0.625 0
1.28571 0.75 0
1.39286 0.75 0
1.39286 0.625 0
1.5 0.625 0
1.39286 0.75 0
1.5 0.75 0
1.28571 0.75 0
1.39286 0.75 0
1.28571 0.875 0
1.39286 0.875 0
1.39286 0.75 0
1.5 0.75 0
1.39286 0.875 0
1.5 0.875 0
1.28571 0.875 0
1.39286 0.875 0
1.28571 1 0
1.39286 1 0
1.39286 0.875 0
1.5 0.875 0
1.39286 1 0
1.5 1 0
1.5 0.5 0
1.60714 0.5 0
1.5 0.625 0
1.60714 0.625 0
1.60714 0.5 0
1.71429 0.5 0
1.60714 0.625 0
1.71429 0.625 0
1.5 0.625 0
1.60714 0.625 0
1.5 0.75 0
1.60714 0.75 0
1.60714 0.625 0
1.71429 0.625 0
1.60714 0.75 0
1.71429 0.75 0
1.71429 0.5 0
1.82143 0.5 0
1.71429 0.625 0
1.82143 0.625 0
1.82143 0.5 0
1.92857 0.5 0
1.82143 0.625 0
1.92857 0.625 0
1.71429 0.625 0
1.82143 0.625 0
1.71429 0.75 0
1.82143 0.75 0
1.82143 0.625 0
1.92857 0.625 0
1.82143 0.75 0
1.92857 0.75 0
1.92857 0.5 0
2.03571 0.5 0
1.92857 0.625 0
2.03571 0.625 0
2.03571 0.5 0
2.14286 0.5 0
2.03571 0.625 0
2.14286 0.625 0
1.92857 0.625 0
2.03571 0.625 0
1.92857 0.75 0
2.03571 0.75 0
2.03571 0.625 0
2.14286 0.625 0
2.03571 0.75 0
2.14286 0.75 0
2.14286 0 0
2.25 0 0
2.14286 0.125 0
2.25 0.125 0
2.25 0 0
2.35714 0 0
2.25 0.125 0
2.35714 0.125 0
2.14286 0.125 0
2.25 0.125 0
2.14286 0.25 0
2.25 0.25 0
2.25 0.125 0
2.35714 0.125 0
2.25 0.25 0
2.35714 0.25 0
2.14286 0.25 0
2.25 0.25 0
2.14286 0.375 0
2.25 0.375 0
2.25 0.25 0
2.35714 0.25 0
2.25 0.375 0
2.35714 0.375 0
2.14286 0.375 0
2.25 0.375 0
2.14286 0.5 0
2.25 0.5 0
2.25 0.375 0
2.35714 0.375 0
2.25 0.5 0
2.35714 0.5 0
2.14286 0.5 0
2.25 0.5 0
2.14286 0.625 0
2.25 0.625 0
2.25 0.5 0
2.35714 0.5 0
2.25 0.625 0
2.35714 0.625 0
2.14286 0.625 0
2.25 0.625 0
2.14286 0.75 0
2.25 0.75 0
2.25 0.625 0
2.35714 0.625 0
2.25 0.75 0
2.35714 0.75 0
2.35714 0 0
2.46429 0 0
[...]
POINT_DATA 3648
VECTORS velocity double
0 0 0
0 0 0
0 0 0
-0.00988259 0.011137 0
0 0 0
-0.00988259 0.011137 0
0 0 0
-0.00423222 0.0281448 0
0 0 0
0 0 0
-0.00988259 0.011137 0
-0.0352258 0.0177247 0
-0.00988259 0.011137 0
-0.0352258 0.0177247 0
-0.00423222 0.0281448 0
-0.00596619 0.0327325 0
0 0 0
0 0 0
-0.0352258 0.0177247 0
-0.059923 0.0110524 0
-0.0352258 0.0177247 0
-0.059923 0.0110524 0
-0.00596619 0.0327325 0
-0.00805205 0.0279323 0
-0.00596619 0.0327325 0
-0.00805205 0.0279323 0
0.0227802 0.0218482 0
0.0448592 0.0152668 0
0 0 0
0 0 0
-0.059923 0.0110524 0
-0.0682446 -0.00132294 0
-0.059923 0.0110524 0
-0.0682446 -0.00132294 0
-0.00805205 0.0279323 0
-5.17468e-05 -0.0183651 0
-0.00805205 0.0279323 0
-5.17468e-05 -0.0183651 0
0.0448592 0.0152668 0
0.0421586 -0.0121252 0
0 0 0
0 0 0
-0.0682446 -0.00132294 0
-0.0506458 -0.019591 0
-0.0682446 -0.00132294 0
-0.0506458 -0.019591 0
-5.17468e-05 -0.0183651 0
-0.000531935 -0.0215154 0
-5.17468e-05 -0.0183651 0
-0.000531935 -0.0215154 0
0.0421586 -0.0121252 0
0.0224483 -0.00444603 0
0 0 0
0 0 0
-0.0506458 -0.019591 0
0.00794569 -0.0510567 0
-0.0506458 -0.019591 0
0.00794569 -0.0510567 0
-0.000531935 -0.0215154 0
-0.0419049 -0.0684102 0
-0.000531935 -0.0215154 0
-0.0419049 -0.0684102 0
0.0224483 -0.00444603 0
0.0198461 -0.0347445 0
0 0 0
0 0 0
0.00794569 -0.0510567 0
0.0607227 -0.0101932 0
0.00794569 -0.0510567 0
0.0607227 -0.0101932 0
-0.0419049 -0.0684102 0
-0.0371418 -0.0578445 0
0 0 0
0 0 0
0.0607227 -0.0101932 0
0.060659 0.00986125 0
0.0607227 -0.0101932 0
0.060659 0.00986125 0
-0.0371418 -0.0578445 0
-0.035095 0.0491045 0
0 0 0
0 0 0
0.060659 0.00986125 0
0.0362192 0.0193223 0
0.060659 0.00986125 0
0.0362192 0.0193223 0
-0.035095 0.0491045 0
-0.0557234 0.0355057 0
0 0 0
0 0 0
0.0362192 0.0193223 0
-0.00725503 0.0291449 0
0.0362192 0.0193223 0
-0.00725503 0.0291449 0
-0.0557234 0.0355057 0
-0.0137435 0.013503 0
0 0 0
0 0 0
0 0 0
-0.00988226 -0.0111366 0
0 0 0
-0.00988226 -0.0111366 0
0 0 0
-0.0352252 -0.0177247 0
0 0 0
-0.0352252 -0.0177247 0
0 0 0
-0.0599223 -0.0110524 0
0 0 0
-0.0599223 -0.0110524 0
0 0 0
-0.0682437 0.00132328 0
0 0 0
-0.0682437 0.00132328 0
0 0 0
-0.0506441 0.0195916 0
0 0 0
-0.0506441 0.0195916 0
0 0 0
0.00794721 0.0510558 0
0 0 0
0.00794721 0.0510558 0
0 0 0
0.0607202 0.0101894 0
0 0 0
0.0607202 0.0101894 0
0 0 0
0.0606557 -0.00985819 0
0 0 0
0.0606557 -0.00985819 0
0 0 0
0.0362189 -0.0193219 0
0 0 0
0.0362189 -0.0193219 0
0 0 0
-0.00725522 -0.0291451 0
0 0 0
0 0 0
-0.00988226 -0.0111366 0
-0.0042323 -0.0281441 0
-0.00988226 -0.0111366 0
-0.0042323 -0.0281441 0
-0.0352252 -0.0177247 0
-0.00596638 -0.0327325 0
-0.0352252 -0.0177247 0
-0.00596638 -0.0327325 0
-0.0599223 -0.0110524 0
-0.00805203 -0.0279321 0
-0.0599223 -0.0110524 0
-0.00805203 -0.0279321 0
-0.0682437 0.00132328 0
-5.22276e-05 0.0183649 0
-0.0682437 0.00132328 0
-5.22276e-05 0.0183649 0
-0.0506441 0.0195916 0
-0.000533246 0.0215165 0
-0.0506441 0.0195916 0
-0.000533246 0.0215165 0
0.00794721 0.0510558 0
-0.0419055 0.0684095 0
0.00794721 0.0510558 0
-0.0419055 0.0684095 0
0.0607202 0.0101894 0
-0.0371381 0.0578407 0
0.0607202 0.0101894 0
-0.0371381 0.0578407 0
0.0606557 -0.00985819 0
-0.0350916 -0.0491029 0
0.0606557 -0.00985819 0
-0.0350916 -0.0491029 0
0.0362189 -0.0193219 0
-0.0557238 -0.0355047 0
0.0362189 -0.0193219 0
-0.0557238 -0.0355047 0
-0.00725522 -0.0291451 0
-0.0137434 -0.0135029 0
-0.00596638 -0.0327325 0
0.02278 -0.0218482 0
-0.00805203 -0.0279321 0
0.0448588 -0.0152665 0
-0.00805203 -0.0279321 0
0.0448588 -0.0152665 0
-5.22276e-05 0.0183649 0
0.0421583 0.0121245 0
-5.22276e-05 0.0183649 0
0.0421583 0.0121245 0
-0.000533246 0.0215165 0
0.022448 0.00444663 0
-0.000533246 0.0215165 0
0.022448 0.00444663 0
-0.0419055 0.0684095 0
0.0198444 0.0347435 0
0.00697116 0.0238551 0
0.0156544 0.0198683 0
0.00726584 0.0138756 0
0.0142743 0.0115733 0
0.0156544 0.0198683 0
0.0227802 0.0218482 0
0.0142743 0.0115733 0
0.0231837 0.011666 0
0.00726584 0.0138756 0
0.0142743 0.0115733 0
0.0485578 -0.00265824 0
0.0691879 -0.00336197 0
0.0142743 0.0115733 0
0.0231837 0.011666 0
0.0691879 -0.00336197 0
0.0868608 -0.00408371 0
0.0227802 0.0218482 0
0.0314437 0.0182692 0
0.0231837 0.011666 0
0.0320298 0.00842208 0
0.0314437 0.0182692 0
0.0448592 0.0152668 0
0.0320298 0.00842208 0
0.0369079 0.00422617 0
0.0231837 0.011666 0
0.0320298 0.00842208 0
0.0868608 -0.00408371 0
0.102343 -0.00425953 0
0.0320298 0.00842208 0
0.0369079 0.00422617 0
0.102343 -0.00425953 0
0.116185 -0.00524716 0
0.0448592 0.0152668 0
0.0521428 0.0024139 0
0.0369079 0.00422617 0
0.0397038 0.00234955 0
0.0521428 0.0024139 0
0.0421586 -0.0121252 0
0.0397038 0.00234955 0
0.0409827 -0.00114788 0
0.0369079 0.00422617 0
0.0397038 0.00234955 0
0.116185 -0.00524716 0
0.128467 -0.00624402 0
0.0397038 0.00234955 0
0.0409827 -0.00114788 0
0.128467 -0.00624402 0
0.13938 -0.00733163 0
0.0421586 -0.0121252 0
0.0278622 -0.00897899 0
0.0409827 -0.00114788 0
0.0407979 -0.00232528 0
0.0278622 -0.00897899 0
0.0224483 -0.00444603 0
0.0407979 -0.00232528 0
0.0410231 -0.00433142 0
0.0409827 -0.00114788 0
0.0407979 -0.00232528 0
0.13938 -0.00733163 0
0.149218 -0.00825077 0
0.0407979 -0.00232528 0
0.0410231 -0.00433142 0
0.149218 -0.00825077 0
0.157845 -0.00959322 0
0.0224483 -0.00444603 0
0.0213316 -0.0193702 0
0.0410231 -0.00433142 0
0.036144 -0.0117264 0
0.0213316 -0.0193702 0
0.0198461 -0.0347445 0
0.036144 -0.0117264 0
0.0181483 -0.0192293 0
0.0410231 -0.00433142 0
0.036144 -0.0117264 0
0.157845 -0.00959322 0
0.16507 -0.0100311 0
0.036144 -0.0117264 0
0.0181483 -0.0192293 0
0.16507 -0.0100311 0
0.171593 -0.00776439 0
0.0485578 0.00265825 0
0.246071 0.0123063 0
0.0691878 0.00336198 0
0.240965 0.01149 0
0.246071 0.0123063 0
0.186313 0.00478887 0
0.240965 0.01149 0
0.178875 0.00447244 0
0.0691878 0.00336198 0
0.240965 0.01149 0
0.0868607 0.00408375 0
0.23621 0.0105067 0
0.240965 0.01149 0
0.178875 0.00447244 0
0.23621 0.0105067 0
0.172078 0.00422119 0
0.0868607 0.00408375 0
0.23621 0.0105067 0
0.102343 0.00425956 0
0.231726 0.00995373 0
0.23621 0.0105067 0
0.172078 0.00422119 0
0.231726 0.00995373 0
0.165878 0.0040096 0
0.102343 0.00425956 0
0.231726 0.00995373 0
0.116185 0.00524717 0
0.22732 0.00969821 0
0.231726 0.00995373 0
0.165878 0.0040096 0
0.22732 0.00969821 0
0.160153 0.00412126 0
0.116185 0.00524717 0
0.22732 0.00969821 0
0.128467 0.00624402 0
0.222856 0.00985346 0
0.22732 0.00969821 0
0.160153 0.00412126 0
0.222856 0.00985346 0
0.154763 0.00419066 0
0.128467 0.00624402 0
0.222856 0.00985346 0
0.13938 0.00733163 0
0.218203 0.00987493 0
0.222856 0.00985346 0
0.154763 0.00419066 0
0.218203 0.00987493 0
0.149585 0.00437916 0
0.13938 0.00733163 0
0.218203 0.00987493 0
0.149218 0.00825078 0
0.213191 0.0102538 0
0.218203 0.00987493 0
0.149585 0.00437916 0
0.213191 0.0102538 0
0.144588 0.00439489 0
0.149218 0.00825078 0
0.213191 0.0102538 0
0.157845 0.0095932 0
0.207738 0.0102662 0
0.213191 0.0102538 0
0.144588 0.00439489 0
0.207738 0.0102662 0
0.139818 0.00448732 0
0.157845 0.0095932 0
0.207738 0.0102662 0
0.16507 0.010031 0
0.201883 0.00995275 0
0.207738 0.0102662 0
0.139818 0.00448732 0
0.201883 0.00995275 0
0.135465 0.00393399 0
0.16507 0.010031 0
0.201883 0.00995275 0
0.171593 0.00776443 0
0.195984 0.00769566 0
0.201883 0.00995275 0
0.135465 0.00393399 0
0.195984 0.00769566 0
0.131971 0.00286141 0
0.186312 -0.00478875 0
0.246072 -0.0123062 0
0.178875 -0.00447233 0
0.240965 -0.01149 0
0.246072 -0.0123062 0
0.0485578 -0.00265824 0
0.240965 -0.01149 0
0.0691879 -0.00336197 0
0.178875 -0.00447233 0
0.240965 -0.01149 0
0.172078 -0.00422109 0
0.23621 -0.0105066 0
0.240965 -0.01149 0
0.0691879 -0.00336197 0
0.23621 -0.0105066 0
0.0868608 -0.00408371 0
0.172078 -0.00422109 0
0.23621 -0.0105066 0
0.165878 -0.00400951 0
0.231725 -0.00995365 0
0.23621 -0.0105066 0
0.0868608 -0.00408371 0
0.231725 -0.00995365 0
0.102343 -0.00425953 0
0.165878 -0.00400951 0
0.231725 -0.00995365 0
0.160153 -0.00412119 0
0.227319 -0.00969813 0
0.231725 -0.00995365 0
0.102343 -0.00425953 0
0.227319 -0.00969813 0
0.116185 -0.00524716 0
0.160153 -0.00412119 0
0.227319 -0.00969813 0
0.154763 -0.00419059 0
0.222856 -0.00985341 0
0.227319 -0.00969813 0
0.116185 -0.00524716 0
0.222856 -0.00985341 0
0.128467 -0.00624402 0
0.154763 -0.00419059 0
0.222856 -0.00985341 0
0.149585 -0.00437911 0
0.218203 -0.00987488 0
0.222856 -0.00985341 0
0.128467 -0.00624402 0
0.218203 -0.00987488 0
0.13938 -0.00733163 0
0.149585 -0.00437911 0
0.218203 -0.00987488 0
0.144588 -0.00439484 0
0.213191 -0.0102537 0
0.218203 -0.00987488 0
0.13938 -0.00733163 0
0.213191 -0.0102537 0
0.149218 -0.00825077 0
0.144588 -0.00439484 0
0.213191 -0.0102537 0
0.139818 -0.0044873 0
0.207737 -0.0102662 0
0.213191 -0.0102537 0
0.149218 -0.00825077 0
0.207737 -0.0102662 0
0.157845 -0.00959322 0
0.139818 -0.0044873 0
0.207737 -0.0102662 0
0.135465 -0.00393394 0
0.201882 -0.00995273 0
0.207737 -0.0102662 0
0.157845 -0.00959322 0
0.201882 -0.00995273 0
0.16507 -0.0100311 0
0.135465 -0.00393394 0
0.201882 -0.00995273 0
0.131971 -0.00286135 0
0.195983 -0.00769558 0
0.201882 -0.00995273 0
0.16507 -0.0100311 0
0.195983 -0.00769558 0
0.171593 -0.00776439 0
0.0069711 -0.0238546 0
0.00726573 -0.0138755 0
0.0156542 -0.0198678 0
0.0142738 -0.011573 0
0.00726573 -0.0138755 0
0.0485578 0.00265825 0
0.0142738 -0.011573 0
0.0691878 0.00336198 0
0.0156542 -0.0198678 0
0.0142738 -0.011573 0
0.02278 -0.0218482 0
0.023183 -0.011666 0
0.0142738 -0.011573 0
0.0691878 0.00336198 0
0.023183 -0.011666 0
0.0868607 0.00408375 0
0.02278 -0.0218482 0
0.023183 -0.011666 0
0.0314434 -0.0182691 0
0.0320291 -0.00842203 0
0.023183 -0.011666 0
0.0868607 0.00408375 0
0.0320291 -0.00842203 0
0.102343 0.00425956 0
0.0314434 -0.0182691 0
0.0320291 -0.00842203 0
0.0448588 -0.0152665 0
0.0369072 -0.00422611 0
0.0320291 -0.00842203 0
0.102343 0.00425956 0
0.0369072 -0.00422611 0
0.116185 0.00524717 0
0.0448588 -0.0152665 0
0.0369072 -0.00422611 0
0.0521423 -0.00241408 0
0.0397031 -0.00234961 0
0.0369072 -0.00422611 0
0.116185 0.00524717 0
0.0397031 -0.00234961 0
0.128467 0.00624402 0
0.0521423 -0.00241408 0
0.0397031 -0.00234961 0
0.0421583 0.0121245 0
0.0409823 0.00114765 0
0.0397031 -0.00234961 0
0.128467 0.00624402 0
0.0409823 0.00114765 0
0.13938 0.00733163 0
0.0421583 0.0121245 0
0.0409823 0.00114765 0
0.0278621 0.00897892 0
0.0407977 0.00232525 0
0.0409823 0.00114765 0
0.13938 0.00733163 0
0.0407977 0.00232525 0
0.149218 0.00825078 0
0.0278621 0.00897892 0
0.0407977 0.00232525 0
0.022448 0.00444663 0
0.0410227 0.0043316 0
0.0407977 0.00232525 0
0.149218 0.00825078 0
0.0410227 0.0043316 0
0.157845 0.0095932 0
0.022448 0.00444663 0
0.0410227 0.0043316 0
0.0213308 0.0193701 0
0.0361436 0.0117261 0
0.0410227 0.0043316 0
0.157845 0.0095932 0
0.0361436 0.0117261 0
0.16507 0.010031 0
0.0213308 0.0193701 0
0.0361436 0.0117261 0
0.0198444 0.0347435 0
0.0181487 0.0192286 0
0.0361436 0.0117261 0
0.16507 0.010031 0
0.0181487 0.0192286 0
0.171593 0.00776443 0
0 0 0
-0.000992078 0.0140849 0
0 0 0
-0.000276409 0.0155558 0
-0.000992078 0.0140849 0
-0.00423222 0.0281448 0
-0.000276409 0.0155558 0
4.33027e-05 0.0299933 0
0 0 0
-0.000276409 0.0155558 0
0 0 0
0.00113354 0.0145611 0
-0.000276409 0.0155558 0
4.33027e-05 0.0299933 0
0.00113354 0.0145611 0
0.00697116 0.0238551 0
-0.00423222 0.0281448 0
-0.00691011 0.0307482 0
4.33027e-05 0.0299933 0
0.00349304 0.0279597 0
-0.00691011 0.0307482 0
-0.00596619 0.0327325 0
0.00349304 0.0279597 0
0.0087677 0.028299 0
4.33027e-05 0.0299933 0
0.00349304 0.0279597 0
0.00697116 0.0238551 0
0.0156544 0.0198683 0
0.00349304 0.0279597 0
0.0087677 0.028299 0
0.0156544 0.0198683 0
0.0227802 0.0218482 0
-0.0419049 -0.0684102 0
-0.0538861 -0.0658642 0
-0.00989281 -0.044154 0
-0.041713 -0.0387437 0
-0.0538861 -0.0658642 0
-0.0371418 -0.0578445 0
-0.041713 -0.0387437 0
-0.0858356 -0.0516932 0
-0.00989281 -0.044154 0
-0.041713 -0.0387437 0
0.0198461 -0.0347445 0
-0.00460505 0.0175649 0
-0.041713 -0.0387437 0
-0.0858356 -0.0516932 0
-0.00460505 0.0175649 0
-0.0447677 -0.0103986 0
0.0198461 -0.0347445 0
-0.00460505 0.0175649 0
0.0181483 -0.0192293 0
0.0262325 0.0213751 0
-0.00460505 0.0175649 0
-0.0447677 -0.0103986 0
0.0262325 0.0213751 0
0.0505669 0.00398068 0
0.0181483 -0.0192293 0
0.0262325 0.0213751 0
0.171593 -0.00776439 0
0.17591 -0.00482448 0
0.0262325 0.0213751 0
0.0505669 0.00398068 0
0.17591 -0.00482448 0
0.179503 -0.0029054 0
-0.0371418 -0.0578445 0
-0.022069 0.000754765 0
-0.0858356 -0.0516932 0
-0.0998672 -0.00519066 0
-0.022069 0.000754765 0
-0.035095 0.0491045 0
-0.0998672 -0.00519066 0
-0.0713128 0.0367969 0
-0.0858356 -0.0516932 0
-0.0998672 -0.00519066 0
-0.0447677 -0.0103986 0
-0.0491933 -0.0241147 0
-0.0998672 -0.00519066 0
-0.0713128 0.0367969 0
-0.0491933 -0.0241147 0
-0.0431598 0.0148892 0
-0.035095 0.0491045 0
-0.0527777 0.0392441 0
-0.0713128 0.0367969 0
-0.0421365 0.0382001 0
-0.0527777 0.0392441 0
-0.0557234 0.0355057 0
-0.0421365 0.0382001 0
-0.0278258 0.0230928 0
-0.0713128 0.0367969 0
-0.0421365 0.0382001 0
-0.0431598 0.0148892 0
-0.0378048 0.020448 0
-0.0421365 0.0382001 0
-0.0278258 0.0230928 0
-0.0378048 0.020448 0
-0.0207591 0.0043558 0
-0.0557234 0.0355057 0
-0.0436167 0.0267438 0
-0.0278258 0.0230928 0
-0.00205981 -0.00543468 0
-0.0436167 0.0267438 0
-0.0137435 0.013503 0
-0.00205981 -0.00543468 0
0.0118057 -0.00607557 0
-0.0278258 0.0230928 0
-0.00205981 -0.00543468 0
-0.0207591 0.0043558 0
-0.0231588 -0.0133567 0
-0.00205981 -0.00543468 0
0.0118057 -0.00607557 0
-0.0231588 -0.0133567 0
-0.0313004 -0.00427991 0
0 0 0
0 0 0
-0.000517536 0.00713264 0
-0.045512 0.045233 0
0 0 0
0 0 0
-0.045512 0.045233 0
-0.04515 -0.0444273 0
-0.000517536 0.00713264 0
-0.045512 0.045233 0
-0.00725503 0.0291449 0
0.0198808 0.0443862 0
-0.045512 0.045233 0
-0.04515 -0.0444273 0
0.0198808 0.0443862 0
0.0166544 -0.0396663 0
-0.00725503 0.0291449 0
0.0198808 0.0443862 0
-0.0121515 0.0401383 0
0.0132659 -0.0263157 0
0.0198808 0.0443862 0
0.0166544 -0.0396663 0
0.0132659 -0.0263157 0
0.00737395 0.040379 0
-0.0121515 0.0401383 0
0.0132659 -0.0263157 0
-0.0137435 0.013503 0
-0.00529934 -0.0367304 0
0.0132659 -0.0263157 0
0.00737395 0.040379 0
-0.00529934 -0.0367304 0
-0.0197076 0.072915 0
-0.0137435 0.013503 0
-0.00529934 -0.0367304 0
0.0118057 -0.00607557 0
-0.0196721 0.00906474 0
-0.00529934 -0.0367304 0
-0.0197076 0.072915 0
-0.0196721 0.00906474 0
-0.0319721 0.0576361 0
0.0118057 -0.00607557 0
-0.0196721 0.00906474 0
-0.0313004 -0.00427991 0
-0.0158885 0.0260422 0
-0.0196721 0.00906474 0
-0.0319721 0.0576361 0
-0.0158885 0.0260422 0
0.0059492 0.0300007 0
0 0 0
0 0 0
-0.04515 -0.0444273 0
-0.0206807 0.0147971 0
0 0 0
0 0 0
-0.0206807 0.0147971 0
-0.0263715 -0.00713526 0
-0.04515 -0.0444273 0
-0.0206807 0.0147971 0
0.0166544 -0.0396663 0
-0.0316009 0.0369474 0
-0.0206807 0.0147971 0
-0.0263715 -0.00713526 0
-0.0316009 0.0369474 0
-0.0441152 -0.0063938 0
0.0166544 -0.0396663 0
-0.0316009 0.0369474 0
0.00737395 0.040379 0
-0.0206576 0.0462278 0
-0.0316009 0.0369474 0
-0.0441152 -0.0063938 0
-0.0206576 0.0462278 0
-0.0216373 0.000588138 0
0.00737395 0.040379 0
-0.0206576 0.0462278 0
-0.0197076 0.072915 0
-0.00363918 0.0275563 0
-0.0206576 0.0462278 0
-0.0216373 0.000588138 0
-0.00363918 0.0275563 0
0.0208712 -0.00826795 0
-0.0197076 0.072915 0
-0.00363918 0.0275563 0
-0.0319721 0.0576361 0
-0.0160224 0.00555375 0
-0.00363918 0.0275563 0
0.0208712 -0.00826795 0
-0.0160224 0.00555375 0
-0.00817672 -0.0239149 0
-0.0319721 0.0576361 0
-0.0160224 0.00555375 0
0.0059492 0.0300007 0
0.0155878 0.00299209 0
-0.0160224 0.00555375 0
-0.00817672 -0.0239149 0
0.0155878 0.00299209 0
-0.00280798 -0.00912145 0
0 0 0
0 0 0
-0.0263715 -0.00713526 0
-0.0182759 -0.00281421 0
0 0 0
0 0 0
-0.0182759 -0.00281421 0
-0.00346541 -0.0141934 0
-0.0263715 -0.00713526 0
-0.0182759 -0.00281421 0
-0.0441152 -0.0063938 0
-0.0403281 -0.0179111 0
-0.0182759 -0.00281421 0
-0.00346541 -0.0141934 0
-0.0403281 -0.0179111 0
-0.0264592 -0.0321449 0
-0.0441152 -0.0063938 0
-0.0403281 -0.0179111 0
-0.0216373 0.000588138 0
-0.0273368 -0.0227725 0
-0.0403281 -0.0179111 0
-0.0264592 -0.0321449 0
-0.0273368 -0.0227725 0
-0.0288751 -0.0419794 0
-0.0216373 0.000588138 0
-0.0273368 -0.0227725 0
0.0208712 -0.00826795 0
0.0142936 0.000237874 0
-0.0273368 -0.0227725 0
-0.0288751 -0.0419794 0
0.0142936 0.000237874 0
-0.0115596 -0.033237 0
0.0208712 -0.00826795 0
0.0142936 0.000237874 0
-0.00817672 -0.0239149 0
-0.00383525 0.0186136 0
0.0142936 0.000237874 0
-0.0115596 -0.033237 0
-0.00383525 0.0186136 0
-0.00444615 -0.0209117 0
-0.00817672 -0.0239149 0
-0.00383525 0.0186136 0
-0.00280798 -0.00912145 0
0.00499318 -0.0108714 0
-0.00383525 0.0186136 0
-0.00444615 -0.0209117 0
0.00499318 -0.0108714 0
0.00854578 0.00495746 0
0 0 0
0 0 0
-0.00346541 -0.0141934 0
0.00445026 0.00498471 0
0 0 0
0 0 0
0.00445026 0.00498471 0
0 0 0
-0.00346541 -0.0141934 0
0.00445026 0.00498471 0
-0.0264592 -0.0321449 0
-0.0114363 -0.0035255 0
0.00445026 0.00498471 0
0 0 0
-0.0114363 -0.0035255 0
0 0 0
-0.0264592 -0.0321449 0
-0.0114363 -0.0035255 0
-0.0288751 -0.0419794 0
-0.0117694 -0.0312981 0
-0.0114363 -0.0035255 0
0 0 0
-0.0117694 -0.0312981 0
0 0 0
-0.0288751 -0.0419794 0
-0.0117694 -0.0312981 0
-0.0115596 -0.033237 0
-0.0118673 -0.0594103 0
-0.0117694 -0.0312981 0
0 0 0
-0.0118673 -0.0594103 0
0 0 0
-0.0115596 -0.033237 0
-0.0118673 -0.0594103 0
-0.00444615 -0.0209117 0
-0.00135946 -0.0752142 0
-0.0118673 -0.0594103 0
0 0 0
-0.00135946 -0.0752142 0
0 0 0
-0.00444615 -0.0209117 0
-0.00135946 -0.0752142 0
0.00854578 0.00495746 0
-0.00811687 -0.0864157 0
-0.00135946 -0.0752142 0
0 0 0
-0.00811687 -0.0864157 0
0 0 0
0.171593 0.00776443 0
0.195984 0.00769566 0
0.17591 0.00482458 0
0.192007 0.0050255 0
0.195984 0.00769566 0
0.131971 0.00286141 0
0.192007 0.0050255 0
0.129139 0.00208329 0
0.17591 0.00482458 0
0.192007 0.0050255 0
0.179503 0.00290557 0
0.189547 0.00352125 0
0.192007 0.0050255 0
0.129139 0.00208329 0
0.189547 0.00352125 0
0.127039 0.00113248 0
0.203118 0.00491233 0
0.0385392 0.00519293 0
0.194285 0.00486672 0
0.0477375 0.00507261 0
0.0385392 0.00519293 0
0.287367 -3.8105e-09 0
0.0477375 0.00507261 0
0.269423 1.95482e-10 0
0.194285 0.00486672 0
0.0477375 0.00507261 0
0.186313 0.00478887 0
0.0557245 0.00472142 0
0.0477375 0.00507261 0
0.269423 1.95482e-10 0
0.0557245 0.00472142 0
0.25319 9.2425e-09 0
0.186313 0.00478887 0
0.0557245 0.00472142 0
0.178875 0.00447244 0
0.0629038 0.00448945 0
0.0557245 0.00472142 0
0.25319 9.2425e-09 0
0.0629038 0.00448945 0
0.23833 1.32002e-08 0
0.178875 0.00447244 0
0.0629038 0.00448945 0
0.172078 0.00422119 0
0.0693986 0.00414485 0
0.0629038 0.00448945 0
0.23833 1.32002e-08 0
0.0693986 0.00414485 0
0.224677 2.02115e-08 0
0.172078 0.00422119 0
0.0693986 0.00414485 0
0.165878 0.0040096 0
0.0751672 0.0039268 0
0.0693986 0.00414485 0
0.224677 2.02115e-08 0
0.0751672 0.0039268 0
0.212269 1.53383e-08 0
0.165878 0.0040096 0
0.0751672 0.0039268 0
0.160153 0.00412126 0
0.0801458 0.00365204 0
0.0751672 0.0039268 0
0.212269 1.53383e-08 0
0.0801458 0.00365204 0
0.201126 1.5389e-08 0
0.160153 0.00412126 0
0.0801458 0.00365204 0
0.154763 0.00419066 0
0.0843226 0.0035903 0
0.0801458 0.00365204 0
0.201126 1.5389e-08 0
0.0843226 0.0035903 0
0.191124 8.73162e-09 0
0.154763 0.00419066 0
0.0843226 0.0035903 0
0.149585 0.00437916 0
0.0877792 0.00338772 0
0.0843226 0.0035903 0
0.191124 8.73162e-09 0
0.0877792 0.00338772 0
0.182044 1.14125e-08 0
0.149585 0.00437916 0
0.0877792 0.00338772 0
0.144588 0.00439489 0
0.0905427 0.00333786 0
0.0877792 0.00338772 0
0.182044 1.14125e-08 0
0.0905427 0.00333786 0
0.173868 -1.78911e-09 0
0.144588 0.00439489 0
0.0905427 0.00333786 0
0.139818 0.00448732 0
0.0927023 0.00307857 0
0.0905427 0.00333786 0
0.173868 -1.78911e-09 0
0.0927023 0.00307857 0
0.166612 5.51602e-10 0
0.139818 0.00448732 0
0.0927023 0.00307857 0
0.135465 0.00393399 0
0.0945041 0.00301885 0
0.0927023 0.00307857 0
0.166612 5.51602e-10 0
0.0945041 0.00301885 0
0.160047 3.07173e-09 0
0.135465 0.00393399 0
0.0945041 0.00301885 0
0.131971 0.00286141 0
0.0962022 0.00254162 0
0.0945041 0.00301885 0