# vtk DataFile Version 3.0
#This file was generated by the deal.II library on 2026/3/26 at 11:13:08
ASCII
DATASET UNSTRUCTURED_GRID

POINTS 3648 double
0 0 0
0.214286 0 0
0 0.25 0
0.214286 0.25 0
0 0.25 0
0.214286 0.25 0
0 0.5 0
0.214286 0.5 0
0.214286 0 0
0.428571 0 0
0.214286 0.25 0
0.428571 0.25 0
0.214286 0.25 0
0.428571 0.25 0
0.214286 0.5 0
0.428571 0.5 0
0.428571 0 0
0.642857 0 0
0.428571 0.25 0
0.642857 0.25 0
0.428571 0.25 0
0.642857 0.25 0
0.428571 0.5 0
0.642857 0.5 0
0.428571 0.5 0
0.642857 0.5 0
0.428571 0.75 0
0.642857 0.75 0
0.642857 0 0
0.857143 0 0
0.642857 0.25 0
0.857143 0.25 0
0.642857 0.25 0
0.857143 0.25 0
0.642857 0.5 0
0.857143 0.5 0
0.642857 0.5 0
0.857143 0.5 0
0.642857 0.75 0
0.857143 0.75 0
0.857143 0 0
1.07143 0 0
0.857143 0.25 0
1.07143 0.25 0
0.857143 0.25 0
1.07143 0.25 0
0.857143 0.5 0
1.07143 0.5 0
0.857143 0.5 0
1.07143 0.5 0
0.857143 0.75 0
1.07143 0.75 0
1.07143 0 0
1.28571 0 0
1.07143 0.25 0
1.28571 0.25 0
1.07143 0.25 0
1.28571 0.25 0
1.07143 0.5 0
1.28571 0.5 0
1.07143 0.5 0
1.28571 0.5 0
1.07143 0.75 0
1.28571 0.75 0
1.28571 0 0
1.5 0 0
1.28571 0.25 0
1.5 0.25 0
1.28571 0.25 0
1.5 0.25 0
1.28571 0.5 0
1.5 0.5 0
1.5 0 0
1.71429 0 0
1.5 0.25 0
1.71429 0.25 0
1.5 0.25 0
1.71429 0.25 0
1.5 0.5 0
1.71429 0.5 0
1.71429 0 0
1.92857 0 0
1.71429 0.25 0
1.92857 0.25 0
1.71429 0.25 0
1.92857 0.25 0
1.71429 0.5 0
1.92857 0.5 0
1.92857 0 0
2.14286 0 0
1.92857 0.25 0
2.14286 0.25 0
1.92857 0.25 0
2.14286 0.25 0
1.92857 0.5 0
2.14286 0.5 0
0 3 0
0 2.75 0
0.214286 3 0
0.214286 2.75 0
0.214286 3 0
0.214286 2.75 0
0.428571 3 0
0.428571 2.75 0
0.428571 3 0
0.428571 2.75 0
0.642857 3 0
0.642857 2.75 0
0.642857 3 0
0.642857 2.75 0
0.857143 3 0
0.857143 2.75 0
0.857143 3 0
0.857143 2.75 0
1.07143 3 0
1.07143 2.75 0
1.07143 3 0
1.07143 2.75 0
1.28571 3 0
1.28571 2.75 0
1.28571 3 0
1.28571 2.75 0
1.5 3 0
1.5 2.75 0
1.5 3 0
1.5 2.75 0
1.71429 3 0
1.71429 2.75 0
1.71429 3 0
1.71429 2.75 0
1.92857 3 0
1.92857 2.75 0
1.92857 3 0
1.92857 2.75 0
2.14286 3 0
2.14286 2.75 0
0 2.75 0
0 2.5 0
0.214286 2.75 0
0.214286 2.5 0
0.214286 2.75 0
0.214286 2.5 0
0.428571 2.75 0
0.428571 2.5 0
0.428571 2.75 0
0.428571 2.5 0
0.642857 2.75 0
0.642857 2.5 0
0.642857 2.75 0
0.642857 2.5 0
0.857143 2.75 0
0.857143 2.5 0
0.857143 2.75 0
0.857143 2.5 0
1.07143 2.75 0
1.07143 2.5 0
1.07143 2.75 0
1.07143 2.5 0
1.28571 2.75 0
1.28571 2.5 0
1.28571 2.75 0
1.28571 2.5 0
1.5 2.75 0
1.5 2.5 0
1.5 2.75 0
1.5 2.5 0
1.71429 2.75 0
1.71429 2.5 0
1.71429 2.75 0
1.71429 2.5 0
1.92857 2.75 0
1.92857 2.5 0
1.92857 2.75 0
1.92857 2.5 0
2.14286 2.75 0
2.14286 2.5 0
0.428571 2.5 0
0.428571 2.25 0
0.642857 2.5 0
0.642857 2.25 0
0.642857 2.5 0
0.642857 2.25 0
0.857143 2.5 0
0.857143 2.25 0
0.857143 2.5 0
0.857143 2.25 0
1.07143 2.5 0
1.07143 2.25 0
1.07143 2.5 0
1.07143 2.25 0
1.28571 2.5 0
1.28571 2.25 0
0.214286 0.75 0
0.321429 0.75 0
0.214286 0.875 0
0.321429 0.875 0
0.321429 0.75 0
0.428571 0.75 0
0.321429 0.875 0
0.428571 0.875 0
0.214286 0.875 0
0.321429 0.875 0
0.214286 1 0
0.321429 1 0
0.321429 0.875 0
0.428571 0.875 0
0.321429 1 0
0.428571 1 0
0.428571 0.75 0
0.535714 0.75 0
0.428571 0.875 0
0.535714 0.875 0
0.535714 0.75 0
0.642857 0.75 0
0.535714 0.875 0
0.642857 0.875 0
0.428571 0.875 0
0.535714 0.875 0
0.428571 1 0
0.535714 1 0
0.535714 0.875 0
0.642857 0.875 0
0.535714 1 0
0.642857 1 0
0.642857 0.75 0
0.75 0.75 0
0.642857 0.875 0
0.75 0.875 0
0.75 0.75 0
0.857143 0.75 0
0.75 0.875 0
0.857143 0.875 0
0.642857 0.875 0
0.75 0.875 0
0.642857 1 0
0.75 1 0
0.75 0.875 0
0.857143 0.875 0
0.75 1 0
0.857143 1 0
0.857143 0.75 0
0.964286 0.75 0
0.857143 0.875 0
0.964286 0.875 0
0.964286 0.75 0
1.07143 0.75 0
0.964286 0.875 0
1.07143 0.875 0
0.857143 0.875 0
0.964286 0.875 0
0.857143 1 0
0.964286 1 0
0.964286 0.875 0
1.07143 0.875 0
0.964286 1 0
1.07143 1 0
1.07143 0.75 0
1.17857 0.75 0
1.07143 0.875 0
1.17857 0.875 0
1.17857 0.75 0
1.28571 0.75 0
1.17857 0.875 0
1.28571 0.875 0
1.07143 0.875 0
1.17857 0.875 0
1.07143 1 0
1.17857 1 0
1.17857 0.875 0
1.28571 0.875 0
1.17857 1 0
1.28571 1 0
0.214286 2 0
0.214286 1.875 0
0.321429 2 0
0.321429 1.875 0
0.214286 1.875 0
0.214286 1.75 0
0.321429 1.875 0
0.321429 1.75 0
0.321429 2 0
0.321429 1.875 0
0.428571 2 0
0.428571 1.875 0
0.321429 1.875 0
0.321429 1.75 0
0.428571 1.875 0
0.428571 1.75 0
0.428571 2 0
0.428571 1.875 0
0.535714 2 0
0.535714 1.875 0
0.428571 1.875 0
0.428571 1.75 0
0.535714 1.875 0
0.535714 1.75 0
0.535714 2 0
0.535714 1.875 0
0.642857 2 0
0.642857 1.875 0
0.535714 1.875 0
0.535714 1.75 0
0.642857 1.875 0
0.642857 1.75 0
0.642857 2 0
0.642857 1.875 0
0.75 2 0
0.75 1.875 0
0.642857 1.875 0
0.642857 1.75 0
0.75 1.875 0
0.75 1.75 0
0.75 2 0
0.75 1.875 0
0.857143 2 0
0.857143 1.875 0
0.75 1.875 0
0.75 1.75 0
0.857143 1.875 0
0.857143 1.75 0
0.857143 2 0
0.857143 1.875 0
0.964286 2 0
0.964286 1.875 0
0.857143 1.875 0
0.857143 1.75 0
0.964286 1.875 0
0.964286 1.75 0
0.964286 2 0
0.964286 1.875 0
1.07143 2 0
1.07143 1.875 0
0.964286 1.875 0
0.964286 1.75 0
1.07143 1.875 0
1.07143 1.75 0
1.07143 2 0
1.07143 1.875 0
1.17857 2 0
1.17857 1.875 0
1.07143 1.875 0
1.07143 1.75 0
1.17857 1.875 0
1.17857 1.75 0
1.17857 2 0
1.17857 1.875 0
1.28571 2 0
1.28571 1.875 0
1.17857 1.875 0
1.17857 1.75 0
1.28571 1.875 0
1.28571 1.75 0
0.214286 1.25 0
0.214286 1.125 0
0.321429 1.25 0
0.321429 1.125 0
0.214286 1.125 0
0.214286 1 0
0.321429 1.125 0
0.321429 1 0
0.321429 1.25 0
0.321429 1.125 0
0.428571 1.25 0
0.428571 1.125 0
0.321429 1.125 0
0.321429 1 0
0.428571 1.125 0
0.428571 1 0
0.428571 1.25 0
0.428571 1.125 0
0.535714 1.25 0
0.535714 1.125 0
0.428571 1.125 0
0.428571 1 0
0.535714 1.125 0
0.535714 1 0
0.535714 1.25 0
0.535714 1.125 0
0.642857 1.25 0
0.642857 1.125 0
0.535714 1.125 0
0.535714 1 0
0.642857 1.125 0
0.642857 1 0
0.642857 1.25 0
0.642857 1.125 0
0.75 1.25 0
0.75 1.125 0
0.642857 1.125 0
0.642857 1 0
0.75 1.125 0
0.75 1 0
0.75 1.25 0
0.75 1.125 0
0.857143 1.25 0
0.857143 1.125 0
0.75 1.125 0
0.75 1 0
0.857143 1.125 0
0.857143 1 0
0.857143 1.25 0
0.857143 1.125 0
0.964286 1.25 0
0.964286 1.125 0
0.857143 1.125 0
0.857143 1 0
0.964286 1.125 0
0.964286 1 0
0.964286 1.25 0
0.964286 1.125 0
1.07143 1.25 0
1.07143 1.125 0
0.964286 1.125 0
0.964286 1 0
1.07143 1.125 0
1.07143 1 0
1.07143 1.25 0
1.07143 1.125 0
1.17857 1.25 0
1.17857 1.125 0
1.07143 1.125 0
1.07143 1 0
1.17857 1.125 0
1.17857 1 0
1.17857 1.25 0
1.17857 1.125 0
1.28571 1.25 0
1.28571 1.125 0
1.17857 1.125 0
1.17857 1 0
1.28571 1.125 0
1.28571 1 0
0.214286 2.25 0
0.214286 2.125 0
0.321429 2.25 0
0.321429 2.125 0
0.214286 2.125 0
0.214286 2 0
0.321429 2.125 0
0.321429 2 0
0.321429 2.25 0
0.321429 2.125 0
0.428571 2.25 0
0.428571 2.125 0
0.321429 2.125 0
0.321429 2 0
0.428571 2.125 0
0.428571 2 0
0.428571 2.25 0
0.428571 2.125 0
0.535714 2.25 0
0.535714 2.125 0
0.428571 2.125 0
0.428571 2 0
0.535714 2.125 0
0.535714 2 0
0.535714 2.25 0
0.535714 2.125 0
0.642857 2.25 0
0.642857 2.125 0
0.535714 2.125 0
0.535714 2 0
0.642857 2.125 0
0.642857 2 0
0.642857 2.25 0
0.642857 2.125 0
0.75 2.25 0
0.75 2.125 0
0.642857 2.125 0
0.642857 2 0
0.75 2.125 0
0.75 2 0
0.75 2.25 0
0.75 2.125 0
0.857143 2.25 0
0.857143 2.125 0
0.75 2.125 0
0.75 2 0
0.857143 2.125 0
0.857143 2 0
0.857143 2.25 0
0.857143 2.125 0
0.964286 2.25 0
0.964286 2.125 0
0.857143 2.125 0
0.857143 2 0
0.964286 2.125 0
0.964286 2 0
0.964286 2.25 0
0.964286 2.125 0
1.07143 2.25 0
1.07143 2.125 0
0.964286 2.125 0
0.964286 2 0
1.07143 2.125 0
1.07143 2 0
1.07143 2.25 0
1.07143 2.125 0
1.17857 2.25 0
1.17857 2.125 0
1.07143 2.125 0
1.07143 2 0
1.17857 2.125 0
1.17857 2 0
1.17857 2.25 0
1.17857 2.125 0
1.28571 2.25 0
1.28571 2.125 0
1.17857 2.125 0
1.17857 2 0
1.28571 2.125 0
1.28571 2 0
0 0.5 0
0.107143 0.5 0
0 0.625 0
0.107143 0.625 0
0.107143 0.5 0
0.214286 0.5 0
0.107143 0.625 0
0.214286 0.625 0
0 0.625 0
0.107143 0.625 0
0 0.75 0
0.107143 0.75 0
0.107143 0.625 0
0.214286 0.625 0
0.107143 0.75 0
0.214286 0.75 0
0.214286 0.5 0
0.321429 0.5 0
0.214286 0.625 0
0.321429 0.625 0
0.321429 0.5 0
0.428571 0.5 0
0.321429 0.625 0
0.428571 0.625 0
0.214286 0.625 0
0.321429 0.625 0
0.214286 0.75 0
0.321429 0.75 0
0.321429 0.625 0
0.428571 0.625 0
0.321429 0.75 0
0.428571 0.75 0
1.28571 0.5 0
1.39286 0.5 0
1.28571 0.625 0
1.39286 0.625 0
1.39286 0.5 0
1.5 0.5 0
1.39286 0.625 0
1.5 0.625 0
1.28571 0.625 0
1.39286 0.625 0
1.28571 0.75 0
1.39286 0.75 0
1.39286 0.625 0
1.5 0.625 0
1.39286 0.75 0
1.5 0.75 0
1.28571 0.75 0
1.39286 0.75 0
1.28571 0.875 0
1.39286 0.875 0
1.39286 0.75 0
1.5 0.75 0
1.39286 0.875 0
1.5 0.875 0
1.28571 0.875 0
1.39286 0.875 0
1.28571 1 0
1.39286 1 0
1.39286 0.875 0
1.5 0.875 0
1.39286 1 0
1.5 1 0
1.5 0.5 0
1.60714 0.5 0
1.5 0.625 0
1.60714 0.625 0
1.60714 0.5 0
1.71429 0.5 0
1.60714 0.625 0
1.71429 0.625 0
1.5 0.625 0
1.60714 0.625 0
1.5 0.75 0
1.60714 0.75 0
1.60714 0.625 0
1.71429 0.625 0
1.60714 0.75 0
1.71429 0.75 0
1.71429 0.5 0
1.82143 0.5 0
1.71429 0.625 0
1.82143 0.625 0
1.82143 0.5 0
1.92857 0.5 0
1.82143 0.625 0
1.92857 0.625 0
1.71429 0.625 0
1.82143 0.625 0
1.71429 0.75 0
1.82143 0.75 0
1.82143 0.625 0
1.92857 0.625 0
1.82143 0.75 0
1.92857 0.75 0
1.92857 0.5 0
2.03571 0.5 0
1.92857 0.625 0
2.03571 0.625 0
2.03571 0.5 0
2.14286 0.5 0
2.03571 0.625 0
2.14286 0.625 0
1.92857 0.625 0
2.03571 0.625 0
1.92857 0.75 0
2.03571 0.75 0
2.03571 0.625 0
2.14286 0.625 0
2.03571 0.75 0
2.14286 0.75 0
2.14286 0 0
2.25 0 0
2.14286 0.125 0
2.25 0.125 0
2.25 0 0
2.35714 0 0
2.25 0.125 0
2.35714 0.125 0
2.14286 0.125 0
2.25 0.125 0
2.14286 0.25 0
2.25 0.25 0
2.25 0.125 0
2.35714 0.125 0
2.25 0.25 0
2.35714 0.25 0
2.14286 0.25 0
2.25 0.25 0
2.14286 0.375 0
2.25 0.375 0
2.25 0.25 0
2.35714 0.25 0
2.25 0.375 0
2.35714 0.375 0
2.14286 0.375 0
2.25 0.375 0
2.14286 0.5 0
2.25 0.5 0
2.25 0.375 0
2.35714 0.375 0
2.25 0.5 0
2.35714 0.5 0
2.14286 0.5 0
2.25 0.5 0
2.14286 0.625 0
2.25 0.625 0
2.25 0.5 0
2.35714 0.5 0
2.25 0.625 0
2.35714 0.625 0
2.14286 0.625 0
2.25 0.625 0
2.14286 0.75 0
2.25 0.75 0
2.25 0.625 0
2.35714 0.625 0
2.25 0.75 0
2.35714 0.75 0
2.35714 0 0
2.46429 0 0
[...]
POINT_DATA 3648
VECTORS velocity double
0 0 0
0 0 0
0 0 0
-0.000211066 0.000248792 0
0 0 0
-0.000211066 0.000248792 0
0 0 0
-0.00140202 0.00215104 0
0 0 0
0 0 0
-0.000211066 0.000248792 0
-0.000788069 0.000435775 0
-0.000211066 0.000248792 0
-0.000788069 0.000435775 0
-0.00140202 0.00215104 0
-0.0042053 0.00251968 0
0 0 0
0 0 0
-0.000788069 0.000435775 0
-0.00156103 0.000478896 0
-0.000788069 0.000435775 0
-0.00156103 0.000478896 0
-0.0042053 0.00251968 0
-0.00693638 0.00250998 0
-0.0042053 0.00251968 0
-0.00693638 0.00250998 0
-0.00383044 0.00510545 0
-0.0052028 0.00476637 0
0 0 0
0 0 0
-0.00156103 0.000478896 0
-0.00220494 0.000291975 0
-0.00156103 0.000478896 0
-0.00220494 0.000291975 0
-0.00693638 0.00250998 0
-0.00921904 0.0017129 0
-0.00693638 0.00250998 0
-0.00921904 0.0017129 0
-0.0052028 0.00476637 0
-0.00599801 0.00308721 0
0 0 0
0 0 0
-0.00220494 0.000291975 0
-0.00238058 -5.09897e-05 0
-0.00220494 0.000291975 0
-0.00238058 -5.09897e-05 0
-0.00921904 0.0017129 0
-0.0105808 0.000377327 0
-0.00921904 0.0017129 0
-0.0105808 0.000377327 0
-0.00599801 0.00308721 0
-0.0075314 0.00242839 0
0 0 0
0 0 0
-0.00238058 -5.09897e-05 0
-0.00192764 -0.000447734 0
-0.00238058 -5.09897e-05 0
-0.00192764 -0.000447734 0
-0.0105808 0.000377327 0
-0.0108035 -0.0011163 0
-0.0105808 0.000377327 0
-0.0108035 -0.0011163 0
-0.0075314 0.00242839 0
-0.0109558 0.00108371 0
0 0 0
0 0 0
-0.00192764 -0.000447734 0
-0.00134373 -0.000165479 0
-0.00192764 -0.000447734 0
-0.00134373 -0.000165479 0
-0.0108035 -0.0011163 0
-0.00838168 -0.00293957 0
0 0 0
0 0 0
-0.00134373 -0.000165479 0
-0.00308437 0.00228053 0
-0.00134373 -0.000165479 0
-0.00308437 0.00228053 0
-0.00838168 -0.00293957 0
-0.00301608 0.000887116 0
0 0 0
0 0 0
-0.00308437 0.00228053 0
-0.00788396 0.00333968 0
-0.00308437 0.00228053 0
-0.00788396 0.00333968 0
-0.00301608 0.000887116 0
-0.000526272 0.00747053 0
0 0 0
0 0 0
-0.00788396 0.00333968 0
-0.0199622 0.0108724 0
-0.00788396 0.00333968 0
-0.0199622 0.0108724 0
-0.000526272 0.00747053 0
0.000401619 0.0197949 0
0 0 0
0 0 0
0 0 0
-0.000211066 -0.000248792 0
0 0 0
-0.000211066 -0.000248792 0
0 0 0
-0.000788069 -0.000435775 0
0 0 0
-0.000788069 -0.000435775 0
0 0 0
-0.00156103 -0.000478896 0
0 0 0
-0.00156103 -0.000478896 0
0 0 0
-0.00220494 -0.000291975 0
0 0 0
-0.00220494 -0.000291975 0
0 0 0
-0.00238058 5.09896e-05 0
0 0 0
-0.00238058 5.09896e-05 0
0 0 0
-0.00192764 0.000447734 0
0 0 0
-0.00192764 0.000447734 0
0 0 0
-0.00134373 0.000165479 0
0 0 0
-0.00134373 0.000165479 0
0 0 0
-0.00308437 -0.00228053 0
0 0 0
-0.00308437 -0.00228053 0
0 0 0
-0.00788396 -0.00333968 0
0 0 0
-0.00788396 -0.00333968 0
0 0 0
-0.0199622 -0.0108724 0
0 0 0
0 0 0
-0.000211066 -0.000248792 0
-0.00140202 -0.00215104 0
-0.000211066 -0.000248792 0
-0.00140202 -0.00215104 0
-0.000788069 -0.000435775 0
-0.0042053 -0.00251967 0
-0.000788069 -0.000435775 0
-0.0042053 -0.00251967 0
-0.00156103 -0.000478896 0
-0.00693638 -0.00250998 0
-0.00156103 -0.000478896 0
-0.00693638 -0.00250998 0
-0.00220494 -0.000291975 0
-0.00921904 -0.0017129 0
-0.00220494 -0.000291975 0
-0.00921904 -0.0017129 0
-0.00238058 5.09896e-05 0
-0.0105808 -0.000377327 0
-0.00238058 5.09896e-05 0
-0.0105808 -0.000377327 0
-0.00192764 0.000447734 0
-0.0108035 0.00111629 0
-0.00192764 0.000447734 0
-0.0108035 0.00111629 0
-0.00134373 0.000165479 0
-0.00838168 0.00293957 0
-0.00134373 0.000165479 0
-0.00838168 0.00293957 0
-0.00308437 -0.00228053 0
-0.00301608 -0.000887117 0
-0.00308437 -0.00228053 0
-0.00301608 -0.000887117 0
-0.00788396 -0.00333968 0
-0.000526272 -0.00747053 0
-0.00788396 -0.00333968 0
-0.000526272 -0.00747053 0
-0.0199622 -0.0108724 0
0.000401619 -0.0197949 0
-0.0042053 -0.00251967 0
-0.00383044 -0.00510545 0
-0.00693638 -0.00250998 0
-0.0052028 -0.00476637 0
-0.00693638 -0.00250998 0
-0.0052028 -0.00476637 0
-0.00921904 -0.0017129 0
-0.00599801 -0.00308721 0
-0.00921904 -0.0017129 0
-0.00599801 -0.00308721 0
-0.0105808 -0.000377327 0
-0.0075314 -0.00242839 0
-0.0105808 -0.000377327 0
-0.0075314 -0.00242839 0
-0.0108035 0.00111629 0
-0.0109558 -0.00108371 0
-0.00141833 0.00565405 0
-0.00286281 0.00565994 0
-0.00708723 0.00588542 0
-0.00516792 0.00494336 0
-0.00286281 0.00565994 0
-0.00383044 0.00510545 0
-0.00516792 0.00494336 0
-0.00316749 0.0047282 0
-0.00708723 0.00588542 0
-0.00516792 0.00494336 0
0.0422253 -0.000619771 0
0.0519997 -0.001672 0
-0.00516792 0.00494336 0
-0.00316749 0.0047282 0
0.0519997 -0.001672 0
0.0606382 -0.000709045 0
-0.00383044 0.00510545 0
-0.00456249 0.00494176 0
-0.00316749 0.0047282 0
-0.000490036 0.00316791 0
-0.00456249 0.00494176 0
-0.0052028 0.00476637 0
-0.000490036 0.00316791 0
0.00206671 0.00443494 0
-0.00316749 0.0047282 0
-0.000490036 0.00316791 0
0.0606382 -0.000709045 0
0.0677758 -0.00255073 0
-0.000490036 0.00316791 0
0.00206671 0.00443494 0
0.0677758 -0.00255073 0
0.0743551 -0.000290059 0
-0.0052028 0.00476637 0
-0.00569981 0.00393074 0
0.00206671 0.00443494 0
0.00502871 0.00150905 0
-0.00569981 0.00393074 0
-0.00599801 0.00308721 0
0.00502871 0.00150905 0
0.00713648 0.00354909 0
0.00206671 0.00443494 0
0.00502871 0.00150905 0
0.0743551 -0.000290059 0
0.0797751 -0.00338218 0
0.00502871 0.00150905 0
0.00713648 0.00354909 0
0.0797751 -0.00338218 0
0.084831 0.000196415 0
-0.00599801 0.00308721 0
-0.00648116 0.00272788 0
0.00713648 0.00354909 0
0.00900177 0.000737977 0
-0.00648116 0.00272788 0
-0.0075314 0.00242839 0
0.00900177 0.000737977 0
0.0122821 0.00197572 0
0.00713648 0.00354909 0
0.00900177 0.000737977 0
0.084831 0.000196415 0
0.0895824 -0.00355432 0
0.00900177 0.000737977 0
0.0122821 0.00197572 0
0.0895824 -0.00355432 0
0.0923117 -0.000687555 0
-0.0075314 0.00242839 0
-0.00906367 0.00178634 0
0.0122821 0.00197572 0
0.0110575 0.00550605 0
-0.00906367 0.00178634 0
-0.0109558 0.00108371 0
0.0110575 0.00550605 0
0.0118431 -0.00123431 0
0.0122821 0.00197572 0
0.0110575 0.00550605 0
0.0923117 -0.000687555 0
0.0995724 0.00114809 0
0.0110575 0.00550605 0
0.0118431 -0.00123431 0
0.0995724 0.00114809 0
0.104526 -0.00354714 0
0.0422253 0.000619771 0
0.301914 0.00280192 0
0.0519997 0.001672 0
0.295034 0.00293084 0
0.301914 0.00280192 0
0.16398 -0.00024886 0
0.295034 0.00293084 0
0.165477 -0.000337369 0
0.0519997 0.001672 0
0.295034 0.00293084 0
0.0606382 0.000709045 0
0.288749 0.00225178 0
0.295034 0.00293084 0
0.165477 -0.000337369 0
0.288749 0.00225178 0
0.166856 -0.000333521 0
0.0606382 0.000709045 0
0.288749 0.00225178 0
0.0677758 0.00255073 0
0.282874 0.002552 0
0.288749 0.00225178 0
0.166856 -0.000333521 0
0.282874 0.002552 0
0.168127 -0.000396336 0
0.0677758 0.00255073 0
0.282874 0.002552 0
0.0743551 0.000290059 0
0.277521 0.00182047 0
0.282874 0.002552 0
0.168127 -0.000396336 0
0.277521 0.00182047 0
0.169288 -0.000325216 0
0.0743551 0.000290059 0
0.277521 0.00182047 0
0.0797751 0.00338218 0
0.272454 0.00233267 0
0.277521 0.00182047 0
0.169288 -0.000325216 0
0.272454 0.00233267 0
0.170353 -0.000414834 0
0.0797751 0.00338218 0
0.272454 0.00233267 0
0.084831 -0.000196415 0
0.267812 0.00146265 0
0.272454 0.00233267 0
0.170353 -0.000414834 0
0.267812 0.00146265 0
0.171336 -0.000288377 0
0.084831 -0.000196415 0
0.267812 0.00146265 0
0.0895824 0.00355432 0
0.263317 0.00224614 0
0.267812 0.00146265 0
0.171336 -0.000288377 0
0.263317 0.00224614 0
0.172251 -0.00043734 0
0.0895824 0.00355432 0
0.263317 0.00224614 0
0.0923117 0.000687555 0
0.259468 0.000831475 0
0.263317 0.00224614 0
0.172251 -0.00043734 0
0.259468 0.000831475 0
0.173059 -0.000250837 0
0.0923117 0.000687555 0
0.259468 0.000831475 0
0.0995724 -0.00114809 0
0.255388 0.00245561 0
0.259468 0.000831475 0
0.173059 -0.000250837 0
0.255388 0.00245561 0
0.173884 -0.000512871 0
0.0995724 -0.00114809 0
0.255388 0.00245561 0
0.104526 0.00354714 0
0.251265 0.00105068 0
0.255388 0.00245561 0
0.173884 -0.000512871 0
0.251265 0.00105068 0
0.174593 -0.000204359 0
0.16398 0.00024886 0
0.301914 -0.00280192 0
0.165477 0.000337369 0
0.295034 -0.00293084 0
0.301914 -0.00280192 0
0.0422253 -0.000619771 0
0.295034 -0.00293084 0
0.0519997 -0.001672 0
0.165477 0.000337369 0
0.295034 -0.00293084 0
0.166856 0.000333521 0
0.288749 -0.00225178 0
0.295034 -0.00293084 0
0.0519997 -0.001672 0
0.288749 -0.00225178 0
0.0606382 -0.000709045 0
0.166856 0.000333521 0
0.288749 -0.00225178 0
0.168127 0.000396336 0
0.282874 -0.002552 0
0.288749 -0.00225178 0
0.0606382 -0.000709045 0
0.282874 -0.002552 0
0.0677758 -0.00255073 0
0.168127 0.000396336 0
0.282874 -0.002552 0
0.169288 0.000325216 0
0.277521 -0.00182047 0
0.282874 -0.002552 0
0.0677758 -0.00255073 0
0.277521 -0.00182047 0
0.0743551 -0.000290059 0
0.169288 0.000325216 0
0.277521 -0.00182047 0
0.170353 0.000414834 0
0.272454 -0.00233267 0
0.277521 -0.00182047 0
0.0743551 -0.000290059 0
0.272454 -0.00233267 0
0.0797751 -0.00338218 0
0.170353 0.000414834 0
0.272454 -0.00233267 0
0.171336 0.000288377 0
0.267812 -0.00146265 0
0.272454 -0.00233267 0
0.0797751 -0.00338218 0
0.267812 -0.00146265 0
0.084831 0.000196415 0
0.171336 0.000288377 0
0.267812 -0.00146265 0
0.172251 0.00043734 0
0.263317 -0.00224614 0
0.267812 -0.00146265 0
0.084831 0.000196415 0
0.263317 -0.00224614 0
0.0895824 -0.00355432 0
0.172251 0.00043734 0
0.263317 -0.00224614 0
0.173059 0.000250837 0
0.259468 -0.000831475 0
0.263317 -0.00224614 0
0.0895824 -0.00355432 0
0.259468 -0.000831475 0
0.0923117 -0.000687555 0
0.173059 0.000250837 0
0.259468 -0.000831475 0
0.173884 0.000512871 0
0.255388 -0.00245561 0
0.259468 -0.000831475 0
0.0923117 -0.000687555 0
0.255388 -0.00245561 0
0.0995724 0.00114809 0
0.173884 0.000512871 0
0.255388 -0.00245561 0
0.174593 0.000204359 0
0.251265 -0.00105068 0
0.255388 -0.00245561 0
0.0995724 0.00114809 0
0.251265 -0.00105068 0
0.104526 -0.00354714 0
-0.00141833 -0.00565405 0
-0.00708723 -0.00588542 0
-0.00286281 -0.00565994 0
-0.00516792 -0.00494336 0
-0.00708723 -0.00588542 0
0.0422253 0.000619771 0
-0.00516792 -0.00494336 0
0.0519997 0.001672 0
-0.00286281 -0.00565994 0
-0.00516792 -0.00494336 0
-0.00383044 -0.00510545 0
-0.00316749 -0.0047282 0
-0.00516792 -0.00494336 0
0.0519997 0.001672 0
-0.00316749 -0.0047282 0
0.0606382 0.000709045 0
-0.00383044 -0.00510545 0
-0.00316749 -0.0047282 0
-0.00456249 -0.00494176 0
-0.000490037 -0.00316791 0
-0.00316749 -0.0047282 0
0.0606382 0.000709045 0
-0.000490037 -0.00316791 0
0.0677758 0.00255073 0
-0.00456249 -0.00494176 0
-0.000490037 -0.00316791 0
-0.0052028 -0.00476637 0
0.00206671 -0.00443494 0
-0.000490037 -0.00316791 0
0.0677758 0.00255073 0
0.00206671 -0.00443494 0
0.0743551 0.000290059 0
-0.0052028 -0.00476637 0
0.00206671 -0.00443494 0
-0.00569981 -0.00393074 0
0.00502871 -0.00150905 0
0.00206671 -0.00443494 0
0.0743551 0.000290059 0
0.00502871 -0.00150905 0
0.0797751 0.00338218 0
-0.00569981 -0.00393074 0
0.00502871 -0.00150905 0
-0.00599801 -0.00308721 0
0.00713648 -0.00354909 0
0.00502871 -0.00150905 0
0.0797751 0.00338218 0
0.00713648 -0.00354909 0
0.084831 -0.000196415 0
-0.00599801 -0.00308721 0
0.00713648 -0.00354909 0
-0.00648116 -0.00272788 0
0.00900177 -0.000737977 0
0.00713648 -0.00354909 0
0.084831 -0.000196415 0
0.00900177 -0.000737977 0
0.0895824 0.00355432 0
-0.00648116 -0.00272788 0
0.00900177 -0.000737977 0
-0.0075314 -0.00242839 0
0.0122821 -0.00197572 0
0.00900177 -0.000737977 0
0.0895824 0.00355432 0
0.0122821 -0.00197572 0
0.0923117 0.000687555 0
-0.0075314 -0.00242839 0
0.0122821 -0.00197572 0
-0.00906367 -0.00178634 0
0.0110575 -0.00550605 0
0.0122821 -0.00197572 0
0.0923117 0.000687555 0
0.0110575 -0.00550605 0
0.0995724 -0.00114809 0
-0.00906367 -0.00178634 0
0.0110575 -0.00550605 0
-0.0109558 -0.00108371 0
0.0118431 0.00123431 0
0.0110575 -0.00550605 0
0.0995724 -0.00114809 0
0.0118431 0.00123431 0
0.104526 0.00354714 0
0 0 0
-0.000346529 0.00109408 0
0 0 0
-0.000797727 0.0024972 0
-0.000346529 0.00109408 0
-0.00140202 0.00215104 0
-0.000797727 0.0024972 0
-0.00229001 0.0038143 0
0 0 0
-0.000797727 0.0024972 0
0 0 0
-0.000281478 0.00383076 0
-0.000797727 0.0024972 0
-0.00229001 0.0038143 0
-0.000281478 0.00383076 0
-0.00141833 0.00565405 0
-0.00140202 0.00215104 0
-0.00280545 0.00233165 0
-0.00229001 0.0038143 0
-0.00371347 0.00406293 0
-0.00280545 0.00233165 0
-0.0042053 0.00251968 0
-0.00371347 0.00406293 0
-0.00499056 0.00399699 0
-0.00229001 0.0038143 0
-0.00371347 0.00406293 0
-0.00141833 0.00565405 0
-0.00286281 0.00565994 0
-0.00371347 0.00406293 0
-0.00499056 0.00399699 0
-0.00286281 0.00565994 0
-0.00383044 0.00510545 0
-0.0108035 -0.0011163 0
-0.010101 -0.00205427 0
-0.0119395 -0.000674399 0
-0.0124209 -0.00278258 0
-0.010101 -0.00205427 0
-0.00838168 -0.00293957 0
-0.0124209 -0.00278258 0
-0.0115275 -0.00526368 0
-0.0119395 -0.000674399 0
-0.0124209 -0.00278258 0
-0.0109558 0.00108371 0
-0.012721 -0.00197166 0
-0.0124209 -0.00278258 0
-0.0115275 -0.00526368 0
-0.012721 -0.00197166 0
-0.0131775 -0.00665246 0
-0.0109558 0.00108371 0
-0.012721 -0.00197166 0
0.0118431 -0.00123431 0
0.0144545 -0.000568805 0
-0.012721 -0.00197166 0
-0.0131775 -0.00665246 0
0.0144545 -0.000568805 0
0.0103406 -0.00268511 0
0.0118431 -0.00123431 0
0.0144545 -0.000568805 0
0.104526 -0.00354714 0
0.104809 -0.00163843 0
0.0144545 -0.000568805 0
0.0103406 -0.00268511 0
0.104809 -0.00163843 0
0.107413 0.000118461 0
-0.00838168 -0.00293957 0
-0.00592836 -0.00105234 0
-0.0115275 -0.00526368 0
-0.00908234 -0.00444509 0
-0.00592836 -0.00105234 0
-0.00301608 0.000887116 0
-0.00908234 -0.00444509 0
-0.00553645 -0.00324865 0
-0.0115275 -0.00526368 0
-0.00908234 -0.00444509 0
-0.0131775 -0.00665246 0
-0.0107483 -0.00879222 0
-0.00908234 -0.00444509 0
-0.00553645 -0.00324865 0
-0.0107483 -0.00879222 0
-0.00670264 -0.00780647 0
-0.00301608 0.000887116 0
-0.000830741 0.00419988 0
-0.00553645 -0.00324865 0
-0.00215008 0.00183427 0
-0.000830741 0.00419988 0
-0.000526272 0.00747053 0
-0.00215008 0.00183427 0
0.00194864 0.00470724 0
-0.00553645 -0.00324865 0
-0.00215008 0.00183427 0
-0.00670264 -0.00780647 0
-0.00093288 -0.0043674 0
-0.00215008 0.00183427 0
0.00194864 0.00470724 0
-0.00093288 -0.0043674 0
0.00719752 -0.00341726 0
-0.000526272 0.00747053 0
-0.000600485 0.0135879 0
0.00194864 0.00470724 0
0.00644409 0.0112077 0
-0.000600485 0.0135879 0
0.000401619 0.0197949 0
0.00644409 0.0112077 0
0.0122093 0.0142192 0
0.00194864 0.00470724 0
0.00644409 0.0112077 0
0.00719752 -0.00341726 0
0.0155964 0.00428203 0
0.00644409 0.0112077 0
0.0122093 0.0142192 0
0.0155964 0.00428203 0
0.0211439 0.00788962 0
0 0 0
0 0 0
-0.0101953 0.00275805 0
-0.0206098 0.00930743 0
0 0 0
0 0 0
-0.0206098 0.00930743 0
-0.0310614 0.0030008 0
-0.0101953 0.00275805 0
-0.0206098 0.00930743 0
-0.0199622 0.0108724 0
-0.0240178 0.0180927 0
-0.0206098 0.00930743 0
-0.0310614 0.0030008 0
-0.0240178 0.0180927 0
-0.0240319 0.00648677 0
-0.0199622 0.0108724 0
-0.0240178 0.0180927 0
-0.0100593 0.0184588 0
-0.0113717 0.0167909 0
-0.0240178 0.0180927 0
-0.0240319 0.00648677 0
-0.0113717 0.0167909 0
-0.00819354 0.00392916 0
-0.0100593 0.0184588 0
-0.0113717 0.0167909 0
0.000401619 0.0197949 0
0.00277509 0.0142533 0
-0.0113717 0.0167909 0
-0.00819354 0.00392916 0
0.00277509 0.0142533 0
0.000866228 0.00488846 0
0.000401619 0.0197949 0
0.00277509 0.0142533 0
0.0122093 0.0142192 0
0.0161697 0.0124803 0
0.00277509 0.0142533 0
0.000866228 0.00488846 0
0.0161697 0.0124803 0
0.0177633 0.00693063 0
0.0122093 0.0142192 0
0.0161697 0.0124803 0
0.0211439 0.00788962 0
0.0252095 0.00944867 0
0.0161697 0.0124803 0
0.0177633 0.00693063 0
0.0252095 0.00944867 0
0.0256586 0.00753037 0
0 0 0
0 0 0
-0.0310614 0.0030008 0
-0.0338033 0.000304056 0
0 0 0
0 0 0
-0.0338033 0.000304056 0
-0.0286561 -0.00621641 0
-0.0310614 0.0030008 0
-0.0338033 0.000304056 0
-0.0240319 0.00648677 0
-0.0241555 0.000186929 0
-0.0338033 0.000304056 0
-0.0286561 -0.00621641 0
-0.0241555 0.000186929 0
-0.0275297 -0.00810224 0
-0.0240319 0.00648677 0
-0.0241555 0.000186929 0
-0.00819354 0.00392916 0
-0.002278 -0.00396925 0
-0.0241555 0.000186929 0
-0.0275297 -0.00810224 0
-0.002278 -0.00396925 0
-0.00323709 0.00118116 0
-0.00819354 0.00392916 0
-0.002278 -0.00396925 0
0.000866228 0.00488846 0
-0.00171394 -0.00883787 0
-0.002278 -0.00396925 0
-0.00323709 0.00118116 0
-0.00171394 -0.00883787 0
0.00160093 0.00324602 0
0.000866228 0.00488846 0
-0.00171394 -0.00883787 0
0.0177633 0.00693063 0
0.0123117 -0.00139908 0
-0.00171394 -0.00883787 0
0.00160093 0.00324602 0
0.0123117 -0.00139908 0
0.00897788 -0.00419841 0
0.0177633 0.00693063 0
0.0123117 -0.00139908 0
0.0256586 0.00753037 0
0.0253333 0.00472796 0
0.0123117 -0.00139908 0
0.00897788 -0.00419841 0
0.0253333 0.00472796 0
0.018338 0.00173679 0
0 0 0
0 0 0
-0.0286561 -0.00621641 0
-0.0165252 -0.00819353 0
0 0 0
0 0 0
-0.0165252 -0.00819353 0
-0.00410119 -0.00632223 0
-0.0286561 -0.00621641 0
-0.0165252 -0.00819353 0
-0.0275297 -0.00810224 0
-0.028772 -0.0192575 0
-0.0165252 -0.00819353 0
-0.00410119 -0.00632223 0
-0.028772 -0.0192575 0
-0.0176447 -0.0225749 0
-0.0275297 -0.00810224 0
-0.028772 -0.0192575 0
-0.00323709 0.00118116 0
-0.0178361 -0.0101891 0
-0.028772 -0.0192575 0
-0.0176447 -0.0225749 0
-0.0178361 -0.0101891 0
-0.0235019 -0.0377921 0
-0.00323709 0.00118116 0
-0.0178361 -0.0101891 0
0.00160093 0.00324602 0
0.00156539 0.00459942 0
-0.0178361 -0.0101891 0
-0.0235019 -0.0377921 0
0.00156539 0.00459942 0
-0.00615766 -0.0369806 0
0.00160093 0.00324602 0
0.00156539 0.00459942 0
0.00897788 -0.00419841 0
0.00903958 0.0120156 0
0.00156539 0.00459942 0
-0.00615766 -0.0369806 0
0.00903958 0.0120156 0
0.00303118 -0.0286778 0
0.00897788 -0.00419841 0
0.00903958 0.0120156 0
0.018338 0.00173679 0
0.0171185 0.00747227 0
0.00903958 0.0120156 0
0.00303118 -0.0286778 0
0.0171185 0.00747227 0
0.0139601 -0.0132951 0
0 0 0
0 0 0
-0.00410119 -0.00632223 0
0.000801314 0.000155014 0
0 0 0
0 0 0
0.000801314 0.000155014 0
0 0 0
-0.00410119 -0.00632223 0
0.000801314 0.000155014 0
-0.0176447 -0.0225749 0
-0.00441229 -0.00511705 0
0.000801314 0.000155014 0
0 0 0
-0.00441229 -0.00511705 0
0 0 0
-0.0176447 -0.0225749 0
-0.00441229 -0.00511705 0
-0.0235019 -0.0377921 0
-0.00929757 -0.0222201 0
-0.00441229 -0.00511705 0
0 0 0
-0.00929757 -0.0222201 0
0 0 0
-0.0235019 -0.0377921 0
-0.00929757 -0.0222201 0
-0.00615766 -0.0369806 0
-0.00550241 -0.040469 0
-0.00929757 -0.0222201 0
0 0 0
-0.00550241 -0.040469 0
0 0 0
-0.00615766 -0.0369806 0
-0.00550241 -0.040469 0
0.00303118 -0.0286778 0
0.000611499 -0.0471835 0
-0.00550241 -0.040469 0
0 0 0
0.000611499 -0.0471835 0
0 0 0
0.00303118 -0.0286778 0
0.000611499 -0.0471835 0
0.0139601 -0.0132951 0
0.00133386 -0.0458957 0
0.000611499 -0.0471835 0
0 0 0
0.00133386 -0.0458957 0
0 0 0
0.104526 0.00354714 0
0.251265 0.00105068 0
0.104809 0.00163843 0
0.248317 0.0010665 0
0.251265 0.00105068 0
0.174593 -0.000204359 0
0.248317 0.0010665 0
0.175286 -0.000510532 0
0.104809 0.00163843 0
0.248317 0.0010665 0
0.107413 -0.000118461 0
0.245688 0.000507199 0
0.248317 0.0010665 0
0.175286 -0.000510532 0
0.245688 0.000507199 0
0.176016 -0.000337167 0
0.161258 -8.58948e-05 0
0.127638 0.000148555 0
0.162609 -9.70368e-05 0
0.126709 0.000174977 0
0.127638 0.000148555 0
0.0761539 1.51326e-10 0
0.126709 0.000174977 0
0.0768077 1.5862e-10 0
0.162609 -9.70368e-05 0
0.126709 0.000174977 0
0.16398 -0.00024886 0
0.125863 0.000165939 0
0.126709 0.000174977 0
0.0768077 1.5862e-10 0
0.125863 0.000165939 0
0.0773429 1.68059e-10 0
0.16398 -0.00024886 0
0.125863 0.000165939 0
0.165477 -0.000337369 0
0.125058 0.00015869 0
0.125863 0.000165939 0
0.0773429 1.68059e-10 0
0.125058 0.00015869 0
0.0778468 1.66592e-10 0
0.165477 -0.000337369 0
0.125058 0.00015869 0
0.166856 -0.000333521 0
0.124277 4.49214e-05 0
0.125058 0.00015869 0
0.0778468 1.66592e-10 0
0.124277 4.49214e-05 0
0.0784184 1.56486e-10 0
0.166856 -0.000333521 0
0.124277 4.49214e-05 0
0.168127 -0.000396336 0
0.123547 0.000103333 0
0.124277 4.49214e-05 0
0.0784184 1.56486e-10 0
0.123547 0.000103333 0
0.0789797 1.4996e-10 0
0.168127 -0.000396336 0
0.123547 0.000103333 0
0.169288 -0.000325216 0
0.122933 9.58023e-05 0
0.123547 0.000103333 0
0.0789797 1.4996e-10 0
0.122933 9.58023e-05 0
0.0793672 1.52932e-10 0