# vtk DataFile Version 3.0
#This file was generated by the deal.II library on 2026/3/26 at 11:14:12
ASCII
DATASET UNSTRUCTURED_GRID

POINTS 3648 double
0 0 0
0.214286 0 0
0 0.25 0
0.214286 0.25 0
0 0.25 0
0.214286 0.25 0
0 0.5 0
0.214286 0.5 0
0.214286 0 0
0.428571 0 0
0.214286 0.25 0
0.428571 0.25 0
0.214286 0.25 0
0.428571 0.25 0
0.214286 0.5 0
0.428571 0.5 0
0.428571 0 0
0.642857 0 0
0.428571 0.25 0
0.642857 0.25 0
0.428571 0.25 0
0.642857 0.25 0
0.428571 0.5 0
0.642857 0.5 0
0.428571 0.5 0
0.642857 0.5 0
0.428571 0.75 0
0.642857 0.75 0
0.642857 0 0
0.857143 0 0
0.642857 0.25 0
0.857143 0.25 0
0.642857 0.25 0
0.857143 0.25 0
0.642857 0.5 0
0.857143 0.5 0
0.642857 0.5 0
0.857143 0.5 0
0.642857 0.75 0
0.857143 0.75 0
0.857143 0 0
1.07143 0 0
0.857143 0.25 0
1.07143 0.25 0
0.857143 0.25 0
1.07143 0.25 0
0.857143 0.5 0
1.07143 0.5 0
0.857143 0.5 0
1.07143 0.5 0
0.857143 0.75 0
1.07143 0.75 0
1.07143 0 0
1.28571 0 0
1.07143 0.25 0
1.28571 0.25 0
1.07143 0.25 0
1.28571 0.25 0
1.07143 0.5 0
1.28571 0.5 0
1.07143 0.5 0
1.28571 0.5 0
1.07143 0.75 0
1.28571 0.75 0
1.28571 0 0
1.5 0 0
1.28571 0.25 0
1.5 0.25 0
1.28571 0.25 0
1.5 0.25 0
1.28571 0.5 0
1.5 0.5 0
1.5 0 0
1.71429 0 0
1.5 0.25 0
1.71429 0.25 0
1.5 0.25 0
1.71429 0.25 0
1.5 0.5 0
1.71429 0.5 0
1.71429 0 0
1.92857 0 0
1.71429 0.25 0
1.92857 0.25 0
1.71429 0.25 0
1.92857 0.25 0
1.71429 0.5 0
1.92857 0.5 0
1.92857 0 0
2.14286 0 0
1.92857 0.25 0
2.14286 0.25 0
1.92857 0.25 0
2.14286 0.25 0
1.92857 0.5 0
2.14286 0.5 0
0 3 0
0 2.75 0
0.214286 3 0
0.214286 2.75 0
0.214286 3 0
0.214286 2.75 0
0.428571 3 0
0.428571 2.75 0
0.428571 3 0
0.428571 2.75 0
0.642857 3 0
0.642857 2.75 0
0.642857 3 0
0.642857 2.75 0
0.857143 3 0
0.857143 2.75 0
0.857143 3 0
0.857143 2.75 0
1.07143 3 0
1.07143 2.75 0
1.07143 3 0
1.07143 2.75 0
1.28571 3 0
1.28571 2.75 0
1.28571 3 0
1.28571 2.75 0
1.5 3 0
1.5 2.75 0
1.5 3 0
1.5 2.75 0
1.71429 3 0
1.71429 2.75 0
1.71429 3 0
1.71429 2.75 0
1.92857 3 0
1.92857 2.75 0
1.92857 3 0
1.92857 2.75 0
2.14286 3 0
2.14286 2.75 0
0 2.75 0
0 2.5 0
0.214286 2.75 0
0.214286 2.5 0
0.214286 2.75 0
0.214286 2.5 0
0.428571 2.75 0
0.428571 2.5 0
0.428571 2.75 0
0.428571 2.5 0
0.642857 2.75 0
0.642857 2.5 0
0.642857 2.75 0
0.642857 2.5 0
0.857143 2.75 0
0.857143 2.5 0
0.857143 2.75 0
0.857143 2.5 0
1.07143 2.75 0
1.07143 2.5 0
1.07143 2.75 0
1.07143 2.5 0
1.28571 2.75 0
1.28571 2.5 0
1.28571 2.75 0
1.28571 2.5 0
1.5 2.75 0
1.5 2.5 0
1.5 2.75 0
1.5 2.5 0
1.71429 2.75 0
1.71429 2.5 0
1.71429 2.75 0
1.71429 2.5 0
1.92857 2.75 0
1.92857 2.5 0
1.92857 2.75 0
1.92857 2.5 0
2.14286 2.75 0
2.14286 2.5 0
0.428571 2.5 0
0.428571 2.25 0
0.642857 2.5 0
0.642857 2.25 0
0.642857 2.5 0
0.642857 2.25 0
0.857143 2.5 0
0.857143 2.25 0
0.857143 2.5 0
0.857143 2.25 0
1.07143 2.5 0
1.07143 2.25 0
1.07143 2.5 0
1.07143 2.25 0
1.28571 2.5 0
1.28571 2.25 0
0.214286 0.75 0
0.321429 0.75 0
0.214286 0.875 0
0.321429 0.875 0
0.321429 0.75 0
0.428571 0.75 0
0.321429 0.875 0
0.428571 0.875 0
0.214286 0.875 0
0.321429 0.875 0
0.214286 1 0
0.321429 1 0
0.321429 0.875 0
0.428571 0.875 0
0.321429 1 0
0.428571 1 0
0.428571 0.75 0
0.535714 0.75 0
0.428571 0.875 0
0.535714 0.875 0
0.535714 0.75 0
0.642857 0.75 0
0.535714 0.875 0
0.642857 0.875 0
0.428571 0.875 0
0.535714 0.875 0
0.428571 1 0
0.535714 1 0
0.535714 0.875 0
0.642857 0.875 0
0.535714 1 0
0.642857 1 0
0.642857 0.75 0
0.75 0.75 0
0.642857 0.875 0
0.75 0.875 0
0.75 0.75 0
0.857143 0.75 0
0.75 0.875 0
0.857143 0.875 0
0.642857 0.875 0
0.75 0.875 0
0.642857 1 0
0.75 1 0
0.75 0.875 0
0.857143 0.875 0
0.75 1 0
0.857143 1 0
0.857143 0.75 0
0.964286 0.75 0
0.857143 0.875 0
0.964286 0.875 0
0.964286 0.75 0
1.07143 0.75 0
0.964286 0.875 0
1.07143 0.875 0
0.857143 0.875 0
0.964286 0.875 0
0.857143 1 0
0.964286 1 0
0.964286 0.875 0
1.07143 0.875 0
0.964286 1 0
1.07143 1 0
1.07143 0.75 0
1.17857 0.75 0
1.07143 0.875 0
1.17857 0.875 0
1.17857 0.75 0
1.28571 0.75 0
1.17857 0.875 0
1.28571 0.875 0
1.07143 0.875 0
1.17857 0.875 0
1.07143 1 0
1.17857 1 0
1.17857 0.875 0
1.28571 0.875 0
1.17857 1 0
1.28571 1 0
0.214286 2 0
0.214286 1.875 0
0.321429 2 0
0.321429 1.875 0
0.214286 1.875 0
0.214286 1.75 0
0.321429 1.875 0
0.321429 1.75 0
0.321429 2 0
0.321429 1.875 0
0.428571 2 0
0.428571 1.875 0
0.321429 1.875 0
0.321429 1.75 0
0.428571 1.875 0
0.428571 1.75 0
0.428571 2 0
0.428571 1.875 0
0.535714 2 0
0.535714 1.875 0
0.428571 1.875 0
0.428571 1.75 0
0.535714 1.875 0
0.535714 1.75 0
0.535714 2 0
0.535714 1.875 0
0.642857 2 0
0.642857 1.875 0
0.535714 1.875 0
0.535714 1.75 0
0.642857 1.875 0
0.642857 1.75 0
0.642857 2 0
0.642857 1.875 0
0.75 2 0
0.75 1.875 0
0.642857 1.875 0
0.642857 1.75 0
0.75 1.875 0
0.75 1.75 0
0.75 2 0
0.75 1.875 0
0.857143 2 0
0.857143 1.875 0
0.75 1.875 0
0.75 1.75 0
0.857143 1.875 0
0.857143 1.75 0
0.857143 2 0
0.857143 1.875 0
0.964286 2 0
0.964286 1.875 0
0.857143 1.875 0
0.857143 1.75 0
0.964286 1.875 0
0.964286 1.75 0
0.964286 2 0
0.964286 1.875 0
1.07143 2 0
1.07143 1.875 0
0.964286 1.875 0
0.964286 1.75 0
1.07143 1.875 0
1.07143 1.75 0
1.07143 2 0
1.07143 1.875 0
1.17857 2 0
1.17857 1.875 0
1.07143 1.875 0
1.07143 1.75 0
1.17857 1.875 0
1.17857 1.75 0
1.17857 2 0
1.17857 1.875 0
1.28571 2 0
1.28571 1.875 0
1.17857 1.875 0
1.17857 1.75 0
1.28571 1.875 0
1.28571 1.75 0
0.214286 1.25 0
0.214286 1.125 0
0.321429 1.25 0
0.321429 1.125 0
0.214286 1.125 0
0.214286 1 0
0.321429 1.125 0
0.321429 1 0
0.321429 1.25 0
0.321429 1.125 0
0.428571 1.25 0
0.428571 1.125 0
0.321429 1.125 0
0.321429 1 0
0.428571 1.125 0
0.428571 1 0
0.428571 1.25 0
0.428571 1.125 0
0.535714 1.25 0
0.535714 1.125 0
0.428571 1.125 0
0.428571 1 0
0.535714 1.125 0
0.535714 1 0
0.535714 1.25 0
0.535714 1.125 0
0.642857 1.25 0
0.642857 1.125 0
0.535714 1.125 0
0.535714 1 0
0.642857 1.125 0
0.642857 1 0
0.642857 1.25 0
0.642857 1.125 0
0.75 1.25 0
0.75 1.125 0
0.642857 1.125 0
0.642857 1 0
0.75 1.125 0
0.75 1 0
0.75 1.25 0
0.75 1.125 0
0.857143 1.25 0
0.857143 1.125 0
0.75 1.125 0
0.75 1 0
0.857143 1.125 0
0.857143 1 0
0.857143 1.25 0
0.857143 1.125 0
0.964286 1.25 0
0.964286 1.125 0
0.857143 1.125 0
0.857143 1 0
0.964286 1.125 0
0.964286 1 0
0.964286 1.25 0
0.964286 1.125 0
1.07143 1.25 0
1.07143 1.125 0
0.964286 1.125 0
0.964286 1 0
1.07143 1.125 0
1.07143 1 0
1.07143 1.25 0
1.07143 1.125 0
1.17857 1.25 0
1.17857 1.125 0
1.07143 1.125 0
1.07143 1 0
1.17857 1.125 0
1.17857 1 0
1.17857 1.25 0
1.17857 1.125 0
1.28571 1.25 0
1.28571 1.125 0
1.17857 1.125 0
1.17857 1 0
1.28571 1.125 0
1.28571 1 0
0.214286 2.25 0
0.214286 2.125 0
0.321429 2.25 0
0.321429 2.125 0
0.214286 2.125 0
0.214286 2 0
0.321429 2.125 0
0.321429 2 0
0.321429 2.25 0
0.321429 2.125 0
0.428571 2.25 0
0.428571 2.125 0
0.321429 2.125 0
0.321429 2 0
0.428571 2.125 0
0.428571 2 0
0.428571 2.25 0
0.428571 2.125 0
0.535714 2.25 0
0.535714 2.125 0
0.428571 2.125 0
0.428571 2 0
0.535714 2.125 0
0.535714 2 0
0.535714 2.25 0
0.535714 2.125 0
0.642857 2.25 0
0.642857 2.125 0
0.535714 2.125 0
0.535714 2 0
0.642857 2.125 0
0.642857 2 0
0.642857 2.25 0
0.642857 2.125 0
0.75 2.25 0
0.75 2.125 0
0.642857 2.125 0
0.642857 2 0
0.75 2.125 0
0.75 2 0
0.75 2.25 0
0.75 2.125 0
0.857143 2.25 0
0.857143 2.125 0
0.75 2.125 0
0.75 2 0
0.857143 2.125 0
0.857143 2 0
0.857143 2.25 0
0.857143 2.125 0
0.964286 2.25 0
0.964286 2.125 0
0.857143 2.125 0
0.857143 2 0
0.964286 2.125 0
0.964286 2 0
0.964286 2.25 0
0.964286 2.125 0
1.07143 2.25 0
1.07143 2.125 0
0.964286 2.125 0
0.964286 2 0
1.07143 2.125 0
1.07143 2 0
1.07143 2.25 0
1.07143 2.125 0
1.17857 2.25 0
1.17857 2.125 0
1.07143 2.125 0
1.07143 2 0
1.17857 2.125 0
1.17857 2 0
1.17857 2.25 0
1.17857 2.125 0
1.28571 2.25 0
1.28571 2.125 0
1.17857 2.125 0
1.17857 2 0
1.28571 2.125 0
1.28571 2 0
0 0.5 0
0.107143 0.5 0
0 0.625 0
0.107143 0.625 0
0.107143 0.5 0
0.214286 0.5 0
0.107143 0.625 0
0.214286 0.625 0
0 0.625 0
0.107143 0.625 0
0 0.75 0
0.107143 0.75 0
0.107143 0.625 0
0.214286 0.625 0
0.107143 0.75 0
0.214286 0.75 0
0.214286 0.5 0
0.321429 0.5 0
0.214286 0.625 0
0.321429 0.625 0
0.321429 0.5 0
0.428571 0.5 0
0.321429 0.625 0
0.428571 0.625 0
0.214286 0.625 0
0.321429 0.625 0
0.214286 0.75 0
0.321429 0.75 0
0.321429 0.625 0
0.428571 0.625 0
0.321429 0.75 0
0.428571 0.75 0
1.28571 0.5 0
1.39286 0.5 0
1.28571 0.625 0
1.39286 0.625 0
1.39286 0.5 0
1.5 0.5 0
1.39286 0.625 0
1.5 0.625 0
1.28571 0.625 0
1.39286 0.625 0
1.28571 0.75 0
1.39286 0.75 0
1.39286 0.625 0
1.5 0.625 0
1.39286 0.75 0
1.5 0.75 0
1.28571 0.75 0
1.39286 0.75 0
1.28571 0.875 0
1.39286 0.875 0
1.39286 0.75 0
1.5 0.75 0
1.39286 0.875 0
1.5 0.875 0
1.28571 0.875 0
1.39286 0.875 0
1.28571 1 0
1.39286 1 0
1.39286 0.875 0
1.5 0.875 0
1.39286 1 0
1.5 1 0
1.5 0.5 0
1.60714 0.5 0
1.5 0.625 0
1.60714 0.625 0
1.60714 0.5 0
1.71429 0.5 0
1.60714 0.625 0
1.71429 0.625 0
1.5 0.625 0
1.60714 0.625 0
1.5 0.75 0
1.60714 0.75 0
1.60714 0.625 0
1.71429 0.625 0
1.60714 0.75 0
1.71429 0.75 0
1.71429 0.5 0
1.82143 0.5 0
1.71429 0.625 0
1.82143 0.625 0
1.82143 0.5 0
1.92857 0.5 0
1.82143 0.625 0
1.92857 0.625 0
1.71429 0.625 0
1.82143 0.625 0
1.71429 0.75 0
1.82143 0.75 0
1.82143 0.625 0
1.92857 0.625 0
1.82143 0.75 0
1.92857 0.75 0
1.92857 0.5 0
2.03571 0.5 0
1.92857 0.625 0
2.03571 0.625 0
2.03571 0.5 0
2.14286 0.5 0
2.03571 0.625 0
2.14286 0.625 0
1.92857 0.625 0
2.03571 0.625 0
1.92857 0.75 0
2.03571 0.75 0
2.03571 0.625 0
2.14286 0.625 0
2.03571 0.75 0
2.14286 0.75 0
2.14286 0 0
2.25 0 0
2.14286 0.125 0
2.25 0.125 0
2.25 0 0
2.35714 0 0
2.25 0.125 0
2.35714 0.125 0
2.14286 0.125 0
2.25 0.125 0
2.14286 0.25 0
2.25 0.25 0
2.25 0.125 0
2.35714 0.125 0
2.25 0.25 0
2.35714 0.25 0
2.14286 0.25 0
2.25 0.25 0
2.14286 0.375 0
2.25 0.375 0
2.25 0.25 0
2.35714 0.25 0
2.25 0.375 0
2.35714 0.375 0
2.14286 0.375 0
2.25 0.375 0
2.14286 0.5 0
2.25 0.5 0
2.25 0.375 0
2.35714 0.375 0
2.25 0.5 0
2.35714 0.5 0
2.14286 0.5 0
2.25 0.5 0
2.14286 0.625 0
2.25 0.625 0
2.25 0.5 0
2.35714 0.5 0
2.25 0.625 0
2.35714 0.625 0
2.14286 0.625 0
2.25 0.625 0
2.14286 0.75 0
2.25 0.75 0
2.25 0.625 0
2.35714 0.625 0
2.25 0.75 0
2.35714 0.75 0
2.35714 0 0
2.46429 0 0
[...]
POINT_DATA 3648
VECTORS velocity double
0 0 0
0 0 0
0 0 0
-0.0102902 0.0115796 0
0 0 0
-0.0102902 0.0115796 0
0 0 0
-0.00353897 0.0280621 0
0 0 0
0 0 0
-0.0102902 0.0115796 0
-0.0348823 0.0165314 0
-0.0102902 0.0115796 0
-0.0348823 0.0165314 0
-0.00353897 0.0280621 0
-0.00485098 0.0305594 0
0 0 0
0 0 0
-0.0348823 0.0165314 0
-0.0580862 0.010568 0
-0.0348823 0.0165314 0
-0.0580862 0.010568 0
-0.00485098 0.0305594 0
-0.0065864 0.0259884 0
-0.00485098 0.0305594 0
-0.0065864 0.0259884 0
0.0222492 0.0205629 0
0.0424256 0.0144078 0
0 0 0
0 0 0
-0.0580862 0.010568 0
-0.0666311 -0.000484881 0
-0.0580862 0.010568 0
-0.0666311 -0.000484881 0
-0.0065864 0.0259884 0
0.00114882 -0.0156534 0
-0.0065864 0.0259884 0
0.00114882 -0.0156534 0
0.0424256 0.0144078 0
0.0403091 -0.0107334 0
0 0 0
0 0 0
-0.0666311 -0.000484881 0
-0.0511927 -0.0177836 0
-0.0666311 -0.000484881 0
-0.0511927 -0.0177836 0
0.00114882 -0.0156534 0
0.00103799 -0.0199554 0
0.00114882 -0.0156534 0
0.00103799 -0.0199554 0
0.0403091 -0.0107334 0
0.0226662 -0.00425025 0
0 0 0
0 0 0
-0.0511927 -0.0177836 0
0.00418089 -0.0490701 0
-0.0511927 -0.0177836 0
0.00418089 -0.0490701 0
0.00103799 -0.0199554 0
-0.0373925 -0.0660789 0
0.00103799 -0.0199554 0
-0.0373925 -0.0660789 0
0.0226662 -0.00425025 0
0.0195436 -0.0336315 0
0 0 0
0 0 0
0.00418089 -0.0490701 0
0.0696598 -0.0272095 0
0.00418089 -0.0490701 0
0.0696598 -0.0272095 0
-0.0373925 -0.0660789 0
-0.0503246 -0.0694764 0
0 0 0
0 0 0
0.0696598 -0.0272095 0
0.073034 0.0236429 0
0.0696598 -0.0272095 0
0.073034 0.0236429 0
-0.0503246 -0.0694764 0
-0.0487392 0.0546568 0
0 0 0
0 0 0
0.073034 0.0236429 0
0.0355778 0.0205221 0
0.073034 0.0236429 0
0.0355778 0.0205221 0
-0.0487392 0.0546568 0
-0.0530931 0.0404804 0
0 0 0
0 0 0
0.0355778 0.0205221 0
-0.0072366 0.0274841 0
0.0355778 0.0205221 0
-0.0072366 0.0274841 0
-0.0530931 0.0404804 0
-0.014251 0.0112449 0
0 0 0
0 0 0
0 0 0
-0.0102894 -0.0115788 0
0 0 0
-0.0102894 -0.0115788 0
0 0 0
-0.0348818 -0.0165324 0
0 0 0
-0.0348818 -0.0165324 0
0 0 0
-0.058087 -0.0105685 0
0 0 0
-0.058087 -0.0105685 0
0 0 0
-0.0666317 0.000485741 0
0 0 0
-0.0666317 0.000485741 0
0 0 0
-0.0511908 0.0177857 0
0 0 0
-0.0511908 0.0177857 0
0 0 0
0.00418499 0.0490705 0
0 0 0
0.00418499 0.0490705 0
0 0 0
0.0696499 0.0271923 0
0 0 0
0.0696499 0.0271923 0
0 0 0
0.0730202 -0.0236295 0
0 0 0
0.0730202 -0.0236295 0
0 0 0
0.0355767 -0.0205208 0
0 0 0
0.0355767 -0.0205208 0
0 0 0
-0.00723735 -0.0274847 0
0 0 0
0 0 0
-0.0102894 -0.0115788 0
-0.00353974 -0.0280614 0
-0.0102894 -0.0115788 0
-0.00353974 -0.0280614 0
-0.0348818 -0.0165324 0
-0.00485228 -0.0305613 0
-0.0348818 -0.0165324 0
-0.00485228 -0.0305613 0
-0.058087 -0.0105685 0
-0.00658797 -0.0259902 0
-0.058087 -0.0105685 0
-0.00658797 -0.0259902 0
-0.0666317 0.000485741 0
0.00114679 0.0156552 0
-0.0666317 0.000485741 0
0.00114679 0.0156552 0
-0.0511908 0.0177857 0
0.0010351 0.0199581 0
-0.0511908 0.0177857 0
0.0010351 0.0199581 0
0.00418499 0.0490705 0
-0.0373968 0.0660796 0
0.00418499 0.0490705 0
-0.0373968 0.0660796 0
0.0696499 0.0271923 0
-0.0503106 0.0694639 0
0.0696499 0.0271923 0
-0.0503106 0.0694639 0
0.0730202 -0.0236295 0
-0.0487248 -0.0546512 0
0.0730202 -0.0236295 0
-0.0487248 -0.0546512 0
0.0355767 -0.0205208 0
-0.0530943 -0.0404753 0
0.0355767 -0.0205208 0
-0.0530943 -0.0404753 0
-0.00723735 -0.0274847 0
-0.0142503 -0.0112466 0
-0.00485228 -0.0305613 0
0.0222492 -0.020564 0
-0.00658797 -0.0259902 0
0.0424272 -0.0144086 0
-0.00658797 -0.0259902 0
0.0424272 -0.0144086 0
0.00114679 0.0156552 0
0.0403106 0.0107336 0
0.00114679 0.0156552 0
0.0403106 0.0107336 0
0.0010351 0.0199581 0
0.022666 0.00425164 0
0.0010351 0.0199581 0
0.022666 0.00425164 0
-0.0373968 0.0660796 0
0.0195427 0.0336312 0
0.00686247 0.023063 0
0.0155512 0.0201312 0
0.00676456 0.0132552 0
0.0136474 0.0117858 0
0.0155512 0.0201312 0
0.0222492 0.0205629 0
0.0136474 0.0117858 0
0.0224192 0.0110894 0
0.00676456 0.0132552 0
0.0136474 0.0117858 0
0.0486584 -0.00268141 0
0.0691339 -0.00343003 0
0.0136474 0.0117858 0
0.0224192 0.0110894 0
0.0691339 -0.00343003 0
0.0867214 -0.00410115 0
0.0222492 0.0205629 0
0.0302777 0.0172139 0
0.0224192 0.0110894 0
0.0306473 0.0081063 0
0.0302777 0.0172139 0
0.0424256 0.0144078 0
0.0306473 0.0081063 0
0.0354452 0.00419506 0
0.0224192 0.0110894 0
0.0306473 0.0081063 0
0.0867214 -0.00410115 0
0.102102 -0.00428318 0
0.0306473 0.0081063 0
0.0354452 0.00419506 0
0.102102 -0.00428318 0
0.115746 -0.005224 0
0.0424256 0.0144078 0
0.0490448 0.00254351 0
0.0354452 0.00419506 0
0.038258 0.00239452 0
0.0490448 0.00254351 0
0.0403091 -0.0107334 0
0.038258 0.00239452 0
0.039431 -0.00104098 0
0.0354452 0.00419506 0
0.038258 0.00239452 0
0.115746 -0.005224 0
0.127832 -0.00603413 0
0.038258 0.00239452 0
0.039431 -0.00104098 0
0.127832 -0.00603413 0
0.138575 -0.00705724 0
0.0403091 -0.0107334 0
0.027646 -0.00801809 0
0.039431 -0.00104098 0
0.0392625 -0.00203492 0
0.027646 -0.00801809 0
0.0226662 -0.00425025 0
0.0392625 -0.00203492 0
0.0395063 -0.00404348 0
0.039431 -0.00104098 0
0.0392625 -0.00203492 0
0.138575 -0.00705724 0
0.148206 -0.00785609 0
0.0392625 -0.00203492 0
0.0395063 -0.00404348 0
0.148206 -0.00785609 0
0.156608 -0.00910314 0
0.0226662 -0.00425025 0
0.0213366 -0.0186714 0
0.0395063 -0.00404348 0
0.034737 -0.0110651 0
0.0213366 -0.0186714 0
0.0195436 -0.0336315 0
0.034737 -0.0110651 0
0.0173011 -0.0184435 0
0.0395063 -0.00404348 0
0.034737 -0.0110651 0
0.156608 -0.00910314 0
0.163645 -0.00942527 0
0.034737 -0.0110651 0
0.0173011 -0.0184435 0
0.163645 -0.00942527 0
0.169972 -0.00730443 0
0.0486573 0.00268123 0
0.246044 0.0122423 0
0.0691324 0.00342973 0
0.240929 0.011473 0
0.246044 0.0122423 0
0.184919 0.00484741 0
0.240929 0.011473 0
0.177655 0.00452979 0
0.0691324 0.00342973 0
0.240929 0.011473 0
0.0867195 0.00410089 0
0.236144 0.0104626 0
0.240929 0.011473 0
0.177655 0.00452979 0
0.236144 0.0104626 0
0.171024 0.00425533 0
0.0867195 0.00410089 0
0.236144 0.0104626 0
0.1021 0.00428285 0
0.231619 0.00988252 0
0.236144 0.0104626 0
0.171024 0.00425533 0
0.231619 0.00988252 0
0.164993 0.00400651 0
0.1021 0.00428285 0
0.231619 0.00988252 0
0.115744 0.00522366 0
0.227199 0.00952993 0
0.231619 0.00988252 0
0.164993 0.00400651 0
0.227199 0.00952993 0
0.159444 0.00407241 0
0.115744 0.00522366 0
0.227199 0.00952993 0
0.12783 0.00603391 0
0.222754 0.00960754 0
0.227199 0.00952993 0
0.159444 0.00407241 0
0.222754 0.00960754 0
0.154255 0.00408315 0
0.12783 0.00603391 0
0.222754 0.00960754 0
0.138572 0.00705708 0
0.218161 0.00953797 0
0.222754 0.00960754 0
0.154255 0.00408315 0
0.218161 0.00953797 0
0.149312 0.00424426 0
0.138572 0.00705708 0
0.218161 0.00953797 0
0.148203 0.00785601 0
0.213273 0.00985072 0
0.218161 0.00953797 0
0.149312 0.00424426 0
0.213273 0.00985072 0
0.14457 0.00421347 0
0.148203 0.00785601 0
0.213273 0.00985072 0
0.156606 0.00910312 0
0.208011 0.00976603 0
0.213273 0.00985072 0
0.14457 0.00421347 0
0.208011 0.00976603 0
0.140066 0.00428523 0
0.156606 0.00910312 0
0.208011 0.00976603 0
0.163642 0.00942529 0
0.202405 0.00946985 0
0.208011 0.00976603 0
0.140066 0.00428523 0
0.202405 0.00946985 0
0.135967 0.00373309 0
0.163642 0.00942529 0
0.202405 0.00946985 0
0.16997 0.00730454 0
0.196797 0.00724672 0
0.202405 0.00946985 0
0.135967 0.00373309 0
0.196797 0.00724672 0
0.132684 0.00271119 0
0.184913 -0.00484722 0
0.246045 -0.0122424 0
0.177649 -0.00452963 0
0.240929 -0.0114732 0
0.246045 -0.0122424 0
0.0486584 -0.00268141 0
0.240929 -0.0114732 0
0.0691339 -0.00343003 0
0.177649 -0.00452963 0
0.240929 -0.0114732 0
0.171019 -0.00425519 0
0.236143 -0.0104627 0
0.240929 -0.0114732 0
0.0691339 -0.00343003 0
0.236143 -0.0104627 0
0.0867214 -0.00410115 0
0.171019 -0.00425519 0
0.236143 -0.0104627 0
0.164988 -0.00400635 0
0.231618 -0.00988263 0
0.236143 -0.0104627 0
0.0867214 -0.00410115 0
0.231618 -0.00988263 0
0.102102 -0.00428318 0
0.164988 -0.00400635 0
0.231618 -0.00988263 0
0.159439 -0.00407227 0
0.227197 -0.00952997 0
0.231618 -0.00988263 0
0.102102 -0.00428318 0
0.227197 -0.00952997 0
0.115746 -0.005224 0
0.159439 -0.00407227 0
0.227197 -0.00952997 0
0.15425 -0.00408295 0
0.222751 -0.00960752 0
0.227197 -0.00952997 0
0.115746 -0.005224 0
0.222751 -0.00960752 0
0.127832 -0.00603413 0
0.15425 -0.00408295 0
0.222751 -0.00960752 0
0.149307 -0.00424407 0
0.218158 -0.00953787 0
0.222751 -0.00960752 0
0.127832 -0.00603413 0
0.218158 -0.00953787 0
0.138575 -0.00705724 0
0.149307 -0.00424407 0
0.218158 -0.00953787 0
0.144565 -0.0042132 0
0.21327 -0.00985054 0
0.218158 -0.00953787 0
0.138575 -0.00705724 0
0.21327 -0.00985054 0
0.148206 -0.00785609 0
0.144565 -0.0042132 0
0.21327 -0.00985054 0
0.140061 -0.004285 0
0.208007 -0.00976576 0
0.21327 -0.00985054 0
0.148206 -0.00785609 0
0.208007 -0.00976576 0
0.156608 -0.00910314 0
0.140061 -0.004285 0
0.208007 -0.00976576 0
0.135962 -0.00373278 0
0.202402 -0.00946958 0
0.208007 -0.00976576 0
0.156608 -0.00910314 0
0.202402 -0.00946958 0
0.163645 -0.00942527 0
0.135962 -0.00373278 0
0.202402 -0.00946958 0
0.13268 -0.00271095 0
0.196793 -0.00724638 0
0.202402 -0.00946958 0
0.163645 -0.00942527 0
0.196793 -0.00724638 0
0.169972 -0.00730443 0
0.00686258 -0.0230632 0
0.00676507 -0.0132555 0
0.015551 -0.0201302 0
0.0136478 -0.0117853 0
0.00676507 -0.0132555 0
0.0486573 0.00268123 0
0.0136478 -0.0117853 0
0.0691324 0.00342973 0
0.015551 -0.0201302 0
0.0136478 -0.0117853 0
0.0222492 -0.020564 0
0.0224194 -0.0110899 0
0.0136478 -0.0117853 0
0.0691324 0.00342973 0
0.0224194 -0.0110899 0
0.0867195 0.00410089 0
0.0222492 -0.020564 0
0.0224194 -0.0110899 0
0.0302783 -0.0172149 0
0.0306482 -0.00810665 0
0.0224194 -0.0110899 0
0.0867195 0.00410089 0
0.0306482 -0.00810665 0
0.1021 0.00428285 0
0.0302783 -0.0172149 0
0.0306482 -0.00810665 0
0.0424272 -0.0144086 0
0.0354461 -0.00419519 0
0.0306482 -0.00810665 0
0.1021 0.00428285 0
0.0354461 -0.00419519 0
0.115744 0.00522366 0
0.0424272 -0.0144086 0
0.0354461 -0.00419519 0
0.0490471 -0.00254389 0
0.0382589 -0.00239474 0
0.0354461 -0.00419519 0
0.115744 0.00522366 0
0.0382589 -0.00239474 0
0.12783 0.00603391 0
0.0490471 -0.00254389 0
0.0382589 -0.00239474 0
0.0403106 0.0107336 0
0.0394323 0.00104062 0
0.0382589 -0.00239474 0
0.12783 0.00603391 0
0.0394323 0.00104062 0
0.138572 0.00705708 0
0.0403106 0.0107336 0
0.0394323 0.00104062 0
0.0276464 0.00801901 0
0.0392639 0.00203508 0
0.0394323 0.00104062 0
0.138572 0.00705708 0
0.0392639 0.00203508 0
0.148203 0.00785601 0
0.0276464 0.00801901 0
0.0392639 0.00203508 0
0.022666 0.00425164 0
0.039507 0.00404404 0
0.0392639 0.00203508 0
0.148203 0.00785601 0
0.039507 0.00404404 0
0.156606 0.00910312 0
0.022666 0.00425164 0
0.039507 0.00404404 0
0.0213361 0.0186721 0
0.0347369 0.0110653 0
0.039507 0.00404404 0
0.156606 0.00910312 0
0.0347369 0.0110653 0
0.163642 0.00942529 0
0.0213361 0.0186721 0
0.0347369 0.0110653 0
0.0195427 0.0336312 0
0.017301 0.0184432 0
0.0347369 0.0110653 0
0.163642 0.00942529 0
0.017301 0.0184432 0
0.16997 0.00730454 0
0 0 0
-0.0008327 0.0141224 0
0 0 0
-7.08366e-05 0.0152425 0
-0.0008327 0.0141224 0
-0.00353897 0.0280621 0
-7.08366e-05 0.0152425 0
0.000455675 0.0294969 0
0 0 0
-7.08366e-05 0.0152425 0
0 0 0
0.000956046 0.0143141 0
-7.08366e-05 0.0152425 0
0.000455675 0.0294969 0
0.000956046 0.0143141 0
0.00686247 0.023063 0
-0.00353897 0.0280621 0
-0.00573651 0.0295222 0
0.000455675 0.0294969 0
0.00342615 0.0272541 0
-0.00573651 0.0295222 0
-0.00485098 0.0305594 0
0.00342615 0.0272541 0
0.00798976 0.0265804 0
0.000455675 0.0294969 0
0.00342615 0.0272541 0
0.00686247 0.023063 0
0.0155512 0.0201312 0
0.00342615 0.0272541 0
0.00798976 0.0265804 0
0.0155512 0.0201312 0
0.0222492 0.0205629 0
-0.0373925 -0.0660789 0
-0.053067 -0.0704001 0
-0.00927834 -0.0429549 0
-0.0408635 -0.0381825 0
-0.053067 -0.0704001 0
-0.0503246 -0.0694764 0
-0.0408635 -0.0381825 0
-0.0850225 -0.0521402 0
-0.00927834 -0.0429549 0
-0.0408635 -0.0381825 0
0.0195436 -0.0336315 0
-0.00544865 0.0185403 0
-0.0408635 -0.0381825 0
-0.0850225 -0.0521402 0
-0.00544865 0.0185403 0
-0.0451348 -0.0118137 0
0.0195436 -0.0336315 0
-0.00544865 0.0185403 0
0.0173011 -0.0184435 0
0.0263632 0.0221722 0
-0.00544865 0.0185403 0
-0.0451348 -0.0118137 0
0.0263632 0.0221722 0
0.0501158 0.00289287 0
0.0173011 -0.0184435 0
0.0263632 0.0221722 0
0.169972 -0.00730443 0
0.174024 -0.00452025 0
0.0263632 0.0221722 0
0.0501158 0.00289287 0
0.174024 -0.00452025 0
0.177492 -0.00269776 0
-0.0503246 -0.0694764 0
-0.0449217 -0.00313936 0
-0.0850225 -0.0521402 0
-0.100119 -0.00784701 0
-0.0449217 -0.00313936 0
-0.0487392 0.0546568 0
-0.100119 -0.00784701 0
-0.0741455 0.0333315 0
-0.0850225 -0.0521402 0
-0.100119 -0.00784701 0
-0.0451348 -0.0118137 0
-0.0494525 -0.0247624 0
-0.100119 -0.00784701 0
-0.0741455 0.0333315 0
-0.0494525 -0.0247624 0
-0.0458 0.0151454 0
-0.0487392 0.0546568 0
-0.0530847 0.0453251 0
-0.0741455 0.0333315 0
-0.047004 0.0400101 0
-0.0530847 0.0453251 0
-0.0530931 0.0404804 0
-0.047004 0.0400101 0
-0.03016 0.0260185 0
-0.0741455 0.0333315 0
-0.047004 0.0400101 0
-0.0458 0.0151454 0
-0.0399434 0.0202898 0
-0.047004 0.0400101 0
-0.03016 0.0260185 0
-0.0399434 0.0202898 0
-0.0207846 0.00381493 0
-0.0530931 0.0404804 0
-0.0428487 0.027631 0
-0.03016 0.0260185 0
-0.0012245 -0.00404731 0
-0.0428487 0.027631 0
-0.014251 0.0112449 0
-0.0012245 -0.00404731 0
0.0124296 -0.00713541 0
-0.03016 0.0260185 0
-0.0012245 -0.00404731 0
-0.0207846 0.00381493 0
-0.0231693 -0.0123093 0
-0.0012245 -0.00404731 0
0.0124296 -0.00713541 0
-0.0231693 -0.0123093 0
-0.0317504 -0.00427471 0
0 0 0
0 0 0
-0.00115267 0.00675566 0
-0.0447008 0.0438647 0
0 0 0
0 0 0
-0.0447008 0.0438647 0
-0.0444069 -0.0430028 0
-0.00115267 0.00675566 0
-0.0447008 0.0438647 0
-0.0072366 0.0274841 0
0.0193018 0.0431636 0
-0.0447008 0.0438647 0
-0.0444069 -0.0430028 0
0.0193018 0.0431636 0
0.0160075 -0.0382077 0
-0.0072366 0.0274841 0
0.0193018 0.0431636 0
-0.0113266 0.0374363 0
0.0123944 -0.0239307 0
0.0193018 0.0431636 0
0.0160075 -0.0382077 0
0.0123944 -0.0239307 0
0.00555171 0.0395691 0
-0.0113266 0.0374363 0
0.0123944 -0.0239307 0
-0.014251 0.0112449 0
-0.00480212 -0.0340539 0
0.0123944 -0.0239307 0
0.00555171 0.0395691 0
-0.00480212 -0.0340539 0
-0.0178655 0.0715469 0
-0.014251 0.0112449 0
-0.00480212 -0.0340539 0
0.0124296 -0.00713541 0
-0.0185286 0.00870652 0
-0.00480212 -0.0340539 0
-0.0178655 0.0715469 0
-0.0185286 0.00870652 0
-0.0303854 0.0571928 0
0.0124296 -0.00713541 0
-0.0185286 0.00870652 0
-0.0317504 -0.00427471 0
-0.0165091 0.0242031 0
-0.0185286 0.00870652 0
-0.0303854 0.0571928 0
-0.0165091 0.0242031 0
0.00568723 0.0300492 0
0 0 0
0 0 0
-0.0444069 -0.0430028 0
-0.0207167 0.0142403 0
0 0 0
0 0 0
-0.0207167 0.0142403 0
-0.0262097 -0.0068604 0
-0.0444069 -0.0430028 0
-0.0207167 0.0142403 0
0.0160075 -0.0382077 0
-0.031517 0.0363193 0
-0.0207167 0.0142403 0
-0.0262097 -0.0068604 0
-0.031517 0.0363193 0
-0.0438806 -0.00649318 0
0.0160075 -0.0382077 0
-0.031517 0.0363193 0
0.00555171 0.0395691 0
-0.0209761 0.0452476 0
-0.031517 0.0363193 0
-0.0438806 -0.00649318 0
-0.0209761 0.0452476 0
-0.0216335 0.0003654 0
0.00555171 0.0395691 0
-0.0209761 0.0452476 0
-0.0178655 0.0715469 0
-0.00341417 0.0272626 0
-0.0209761 0.0452476 0
-0.0216335 0.0003654 0
-0.00341417 0.0272626 0
0.0198679 -0.00808382 0
-0.0178655 0.0715469 0
-0.00341417 0.0272626 0
-0.0303854 0.0571928 0
-0.0154153 0.00729053 0
-0.00341417 0.0272626 0
0.0198679 -0.00808382 0
-0.0154153 0.00729053 0
-0.00822112 -0.0236007 0
-0.0303854 0.0571928 0
-0.0154153 0.00729053 0
0.00568723 0.0300492 0
0.0161083 0.00445847 0
-0.0154153 0.00729053 0
-0.00822112 -0.0236007 0
0.0161083 0.00445847 0
-0.00143541 -0.00879783 0
0 0 0
0 0 0
-0.0262097 -0.0068604 0
-0.0181691 -0.00305185 0
0 0 0
0 0 0
-0.0181691 -0.00305185 0
-0.00343322 -0.0139033 0
-0.0262097 -0.0068604 0
-0.0181691 -0.00305185 0
-0.0438806 -0.00649318 0
-0.0400487 -0.0177929 0
-0.0181691 -0.00305185 0
-0.00343322 -0.0139033 0
-0.0400487 -0.0177929 0
-0.0263685 -0.0319227 0
-0.0438806 -0.00649318 0
-0.0400487 -0.0177929 0
-0.0216335 0.0003654 0
-0.0274028 -0.0224579 0
-0.0400487 -0.0177929 0
-0.0263685 -0.0319227 0
-0.0274028 -0.0224579 0
-0.0288173 -0.0418041 0
-0.0216335 0.0003654 0
-0.0274028 -0.0224579 0
0.0198679 -0.00808382 0
0.0135194 -2.53626e-06 0
-0.0274028 -0.0224579 0
-0.0288173 -0.0418041 0
0.0135194 -2.53626e-06 0
-0.0116851 -0.0333722 0
0.0198679 -0.00808382 0
0.0135194 -2.53626e-06 0
-0.00822112 -0.0236007 0
-0.00346609 0.0174589 0
0.0135194 -2.53626e-06 0
-0.0116851 -0.0333722 0
-0.00346609 0.0174589 0
-0.00406203 -0.0209413 0
-0.00822112 -0.0236007 0
-0.00346609 0.0174589 0
-0.00143541 -0.00879783 0
0.00524816 -0.0112205 0
-0.00346609 0.0174589 0
-0.00406203 -0.0209413 0
0.00524816 -0.0112205 0
0.00805811 0.00495728 0
0 0 0
0 0 0
-0.00343322 -0.0139033 0
0.004337 0.00483184 0
0 0 0
0 0 0
0.004337 0.00483184 0
0 0 0
-0.00343322 -0.0139033 0
0.004337 0.00483184 0
-0.0263685 -0.0319227 0
-0.0112457 -0.00359864 0
0.004337 0.00483184 0
0 0 0
-0.0112457 -0.00359864 0
0 0 0
-0.0263685 -0.0319227 0
-0.0112457 -0.00359864 0
-0.0288173 -0.0418041 0
-0.0118652 -0.0312054 0
-0.0112457 -0.00359864 0
0 0 0
-0.0118652 -0.0312054 0
0 0 0
-0.0288173 -0.0418041 0
-0.0118652 -0.0312054 0
-0.0116851 -0.0333722 0
-0.0116804 -0.0591615 0
-0.0118652 -0.0312054 0
0 0 0
-0.0116804 -0.0591615 0
0 0 0
-0.0116851 -0.0333722 0
-0.0116804 -0.0591615 0
-0.00406203 -0.0209413 0
-0.00147126 -0.0748871 0
-0.0116804 -0.0591615 0
0 0 0
-0.00147126 -0.0748871 0
0 0 0
-0.00406203 -0.0209413 0
-0.00147126 -0.0748871 0
0.00805811 0.00495728 0
-0.00807348 -0.0861593 0
-0.00147126 -0.0748871 0
0 0 0
-0.00807348 -0.0861593 0
0 0 0
0.16997 0.00730454 0
0.196797 0.00724672 0
0.174021 0.00452041 0
0.19309 0.00471738 0
0.196797 0.00724672 0
0.132684 0.00271119 0
0.19309 0.00471738 0
0.130003 0.00196035 0
0.174021 0.00452041 0
0.19309 0.00471738 0
0.17749 0.00269796 0
0.190755 0.00330751 0
0.19309 0.00471738 0
0.130003 0.00196035 0
0.190755 0.00330751 0
0.128034 0.0010442 0
0.201278 0.00498832 0
0.0420428 0.00517283 0
0.192685 0.00493324 0
0.0508436 0.00504971 0
0.0420428 0.00517283 0
0.283938 -3.72239e-08 0
0.0508436 0.00504971 0
0.266428 -2.72266e-08 0
0.192685 0.00493324 0
0.0508436 0.00504971 0
0.184919 0.00484741 0
0.0584801 0.00469771 0
0.0508436 0.00504971 0
0.266428 -2.72266e-08 0
0.0584801 0.00469771 0
0.250585 -5.90529e-09 0
0.184919 0.00484741 0
0.0584801 0.00469771 0
0.177655 0.00452979 0
0.0653491 0.00446195 0
0.0584801 0.00469771 0
0.250585 -5.90529e-09 0
0.0653491 0.00446195 0
0.236079 3.92935e-09 0
0.177655 0.00452979 0
0.0653491 0.00446195 0
0.171024 0.00425533 0
0.0715642 0.00411949 0
0.0653491 0.00446195 0
0.236079 3.92935e-09 0
0.0715642 0.00411949 0
0.222754 3.43e-08 0
0.171024 0.00425533 0
0.0715642 0.00411949 0
0.164993 0.00400651 0
0.0770885 0.00388441 0
0.0715642 0.00411949 0
0.222754 3.43e-08 0
0.0770885 0.00388441 0
0.210647 3.98782e-08 0
0.164993 0.00400651 0
0.0770885 0.00388441 0
0.159444 0.00407241 0
0.0818646 0.0036072 0
0.0770885 0.00388441 0
0.210647 3.98782e-08 0
0.0818646 0.0036072 0
0.199778 6.49415e-08 0
0.159444 0.00407241 0
0.0818646 0.0036072 0
0.154255 0.00408315 0
0.0858802 0.00352052 0
0.0818646 0.0036072 0
0.199778 6.49415e-08 0
0.0858802 0.00352052 0
0.190026 5.65423e-08 0
0.154255 0.00408315 0
0.0858802 0.00352052 0
0.149312 0.00424426 0
0.0892109 0.00332937 0
0.0858802 0.00352052 0
0.190026 5.65423e-08 0
0.0892109 0.00332937 0
0.181182 8.25752e-08 0
0.149312 0.00424426 0
0.0892109 0.00332937 0
0.14457 0.00421347 0
0.0918838 0.00324604 0
0.0892109 0.00332937 0
0.181182 8.25752e-08 0
0.0918838 0.00324604 0
0.173228 6.66883e-08 0
0.14457 0.00421347 0
0.0918838 0.00324604 0
0.140066 0.00428523 0
0.0939811 0.00300368 0
0.0918838 0.00324604 0
0.173228 6.66883e-08 0
0.0939811 0.00300368 0
0.166177 9.55605e-08 0
0.140066 0.00428523 0
0.0939811 0.00300368 0
0.135967 0.00373309 0
0.0957373 0.00291018 0
0.0939811 0.00300368 0
0.166177 9.55605e-08 0
0.0957373 0.00291018 0
0.159807 6.61596e-08 0
0.135967 0.00373309 0
0.0957373 0.00291018 0
0.132684 0.00271119 0
0.0973961 0.00247428 0