# vtk DataFile Version 3.0
#This file was generated by the deal.II library on 2026/3/26 at 11:22:40
ASCII
DATASET UNSTRUCTURED_GRID

POINTS 3648 double
0 0 0
0.214286 0 0
0 0.25 0
0.214286 0.25 0
0 0.25 0
0.214286 0.25 0
0 0.5 0
0.214286 0.5 0
0.214286 0 0
0.428571 0 0
0.214286 0.25 0
0.428571 0.25 0
0.214286 0.25 0
0.428571 0.25 0
0.214286 0.5 0
0.428571 0.5 0
0.428571 0 0
0.642857 0 0
0.428571 0.25 0
0.642857 0.25 0
0.428571 0.25 0
0.642857 0.25 0
0.428571 0.5 0
0.642857 0.5 0
0.428571 0.5 0
0.642857 0.5 0
0.428571 0.75 0
0.642857 0.75 0
0.642857 0 0
0.857143 0 0
0.642857 0.25 0
0.857143 0.25 0
0.642857 0.25 0
0.857143 0.25 0
0.642857 0.5 0
0.857143 0.5 0
0.642857 0.5 0
0.857143 0.5 0
0.642857 0.75 0
0.857143 0.75 0
0.857143 0 0
1.07143 0 0
0.857143 0.25 0
1.07143 0.25 0
0.857143 0.25 0
1.07143 0.25 0
0.857143 0.5 0
1.07143 0.5 0
0.857143 0.5 0
1.07143 0.5 0
0.857143 0.75 0
1.07143 0.75 0
1.07143 0 0
1.28571 0 0
1.07143 0.25 0
1.28571 0.25 0
1.07143 0.25 0
1.28571 0.25 0
1.07143 0.5 0
1.28571 0.5 0
1.07143 0.5 0
1.28571 0.5 0
1.07143 0.75 0
1.28571 0.75 0
1.28571 0 0
1.5 0 0
1.28571 0.25 0
1.5 0.25 0
1.28571 0.25 0
1.5 0.25 0
1.28571 0.5 0
1.5 0.5 0
1.5 0 0
1.71429 0 0
1.5 0.25 0
1.71429 0.25 0
1.5 0.25 0
1.71429 0.25 0
1.5 0.5 0
1.71429 0.5 0
1.71429 0 0
1.92857 0 0
1.71429 0.25 0
1.92857 0.25 0
1.71429 0.25 0
1.92857 0.25 0
1.71429 0.5 0
1.92857 0.5 0
1.92857 0 0
2.14286 0 0
1.92857 0.25 0
2.14286 0.25 0
1.92857 0.25 0
2.14286 0.25 0
1.92857 0.5 0
2.14286 0.5 0
0 3 0
0 2.75 0
0.214286 3 0
0.214286 2.75 0
0.214286 3 0
0.214286 2.75 0
0.428571 3 0
0.428571 2.75 0
0.428571 3 0
0.428571 2.75 0
0.642857 3 0
0.642857 2.75 0
0.642857 3 0
0.642857 2.75 0
0.857143 3 0
0.857143 2.75 0
0.857143 3 0
0.857143 2.75 0
1.07143 3 0
1.07143 2.75 0
1.07143 3 0
1.07143 2.75 0
1.28571 3 0
1.28571 2.75 0
1.28571 3 0
1.28571 2.75 0
1.5 3 0
1.5 2.75 0
1.5 3 0
1.5 2.75 0
1.71429 3 0
1.71429 2.75 0
1.71429 3 0
1.71429 2.75 0
1.92857 3 0
1.92857 2.75 0
1.92857 3 0
1.92857 2.75 0
2.14286 3 0
2.14286 2.75 0
0 2.75 0
0 2.5 0
0.214286 2.75 0
0.214286 2.5 0
0.214286 2.75 0
0.214286 2.5 0
0.428571 2.75 0
0.428571 2.5 0
0.428571 2.75 0
0.428571 2.5 0
0.642857 2.75 0
0.642857 2.5 0
0.642857 2.75 0
0.642857 2.5 0
0.857143 2.75 0
0.857143 2.5 0
0.857143 2.75 0
0.857143 2.5 0
1.07143 2.75 0
1.07143 2.5 0
1.07143 2.75 0
1.07143 2.5 0
1.28571 2.75 0
1.28571 2.5 0
1.28571 2.75 0
1.28571 2.5 0
1.5 2.75 0
1.5 2.5 0
1.5 2.75 0
1.5 2.5 0
1.71429 2.75 0
1.71429 2.5 0
1.71429 2.75 0
1.71429 2.5 0
1.92857 2.75 0
1.92857 2.5 0
1.92857 2.75 0
1.92857 2.5 0
2.14286 2.75 0
2.14286 2.5 0
0.428571 2.5 0
0.428571 2.25 0
0.642857 2.5 0
0.642857 2.25 0
0.642857 2.5 0
0.642857 2.25 0
0.857143 2.5 0
0.857143 2.25 0
0.857143 2.5 0
0.857143 2.25 0
1.07143 2.5 0
1.07143 2.25 0
1.07143 2.5 0
1.07143 2.25 0
1.28571 2.5 0
1.28571 2.25 0
0.214286 0.75 0
0.321429 0.75 0
0.214286 0.875 0
0.321429 0.875 0
0.321429 0.75 0
0.428571 0.75 0
0.321429 0.875 0
0.428571 0.875 0
0.214286 0.875 0
0.321429 0.875 0
0.214286 1 0
0.321429 1 0
0.321429 0.875 0
0.428571 0.875 0
0.321429 1 0
0.428571 1 0
0.428571 0.75 0
0.535714 0.75 0
0.428571 0.875 0
0.535714 0.875 0
0.535714 0.75 0
0.642857 0.75 0
0.535714 0.875 0
0.642857 0.875 0
0.428571 0.875 0
0.535714 0.875 0
0.428571 1 0
0.535714 1 0
0.535714 0.875 0
0.642857 0.875 0
0.535714 1 0
0.642857 1 0
0.642857 0.75 0
0.75 0.75 0
0.642857 0.875 0
0.75 0.875 0
0.75 0.75 0
0.857143 0.75 0
0.75 0.875 0
0.857143 0.875 0
0.642857 0.875 0
0.75 0.875 0
0.642857 1 0
0.75 1 0
0.75 0.875 0
0.857143 0.875 0
0.75 1 0
0.857143 1 0
0.857143 0.75 0
0.964286 0.75 0
0.857143 0.875 0
0.964286 0.875 0
0.964286 0.75 0
1.07143 0.75 0
0.964286 0.875 0
1.07143 0.875 0
0.857143 0.875 0
0.964286 0.875 0
0.857143 1 0
0.964286 1 0
0.964286 0.875 0
1.07143 0.875 0
0.964286 1 0
1.07143 1 0
1.07143 0.75 0
1.17857 0.75 0
1.07143 0.875 0
1.17857 0.875 0
1.17857 0.75 0
1.28571 0.75 0
1.17857 0.875 0
1.28571 0.875 0
1.07143 0.875 0
1.17857 0.875 0
1.07143 1 0
1.17857 1 0
1.17857 0.875 0
1.28571 0.875 0
1.17857 1 0
1.28571 1 0
0.214286 2 0
0.214286 1.875 0
0.321429 2 0
0.321429 1.875 0
0.214286 1.875 0
0.214286 1.75 0
0.321429 1.875 0
0.321429 1.75 0
0.321429 2 0
0.321429 1.875 0
0.428571 2 0
0.428571 1.875 0
0.321429 1.875 0
0.321429 1.75 0
0.428571 1.875 0
0.428571 1.75 0
0.428571 2 0
0.428571 1.875 0
0.535714 2 0
0.535714 1.875 0
0.428571 1.875 0
0.428571 1.75 0
0.535714 1.875 0
0.535714 1.75 0
0.535714 2 0
0.535714 1.875 0
0.642857 2 0
0.642857 1.875 0
0.535714 1.875 0
0.535714 1.75 0
0.642857 1.875 0
0.642857 1.75 0
0.642857 2 0
0.642857 1.875 0
0.75 2 0
0.75 1.875 0
0.642857 1.875 0
0.642857 1.75 0
0.75 1.875 0
0.75 1.75 0
0.75 2 0
0.75 1.875 0
0.857143 2 0
0.857143 1.875 0
0.75 1.875 0
0.75 1.75 0
0.857143 1.875 0
0.857143 1.75 0
0.857143 2 0
0.857143 1.875 0
0.964286 2 0
0.964286 1.875 0
0.857143 1.875 0
0.857143 1.75 0
0.964286 1.875 0
0.964286 1.75 0
0.964286 2 0
0.964286 1.875 0
1.07143 2 0
1.07143 1.875 0
0.964286 1.875 0
0.964286 1.75 0
1.07143 1.875 0
1.07143 1.75 0
1.07143 2 0
1.07143 1.875 0
1.17857 2 0
1.17857 1.875 0
1.07143 1.875 0
1.07143 1.75 0
1.17857 1.875 0
1.17857 1.75 0
1.17857 2 0
1.17857 1.875 0
1.28571 2 0
1.28571 1.875 0
1.17857 1.875 0
1.17857 1.75 0
1.28571 1.875 0
1.28571 1.75 0
0.214286 1.25 0
0.214286 1.125 0
0.321429 1.25 0
0.321429 1.125 0
0.214286 1.125 0
0.214286 1 0
0.321429 1.125 0
0.321429 1 0
0.321429 1.25 0
0.321429 1.125 0
0.428571 1.25 0
0.428571 1.125 0
0.321429 1.125 0
0.321429 1 0
0.428571 1.125 0
0.428571 1 0
0.428571 1.25 0
0.428571 1.125 0
0.535714 1.25 0
0.535714 1.125 0
0.428571 1.125 0
0.428571 1 0
0.535714 1.125 0
0.535714 1 0
0.535714 1.25 0
0.535714 1.125 0
0.642857 1.25 0
0.642857 1.125 0
0.535714 1.125 0
0.535714 1 0
0.642857 1.125 0
0.642857 1 0
0.642857 1.25 0
0.642857 1.125 0
0.75 1.25 0
0.75 1.125 0
0.642857 1.125 0
0.642857 1 0
0.75 1.125 0
0.75 1 0
0.75 1.25 0
0.75 1.125 0
0.857143 1.25 0
0.857143 1.125 0
0.75 1.125 0
0.75 1 0
0.857143 1.125 0
0.857143 1 0
0.857143 1.25 0
0.857143 1.125 0
0.964286 1.25 0
0.964286 1.125 0
0.857143 1.125 0
0.857143 1 0
0.964286 1.125 0
0.964286 1 0
0.964286 1.25 0
0.964286 1.125 0
1.07143 1.25 0
1.07143 1.125 0
0.964286 1.125 0
0.964286 1 0
1.07143 1.125 0
1.07143 1 0
1.07143 1.25 0
1.07143 1.125 0
1.17857 1.25 0
1.17857 1.125 0
1.07143 1.125 0
1.07143 1 0
1.17857 1.125 0
1.17857 1 0
1.17857 1.25 0
1.17857 1.125 0
1.28571 1.25 0
1.28571 1.125 0
1.17857 1.125 0
1.17857 1 0
1.28571 1.125 0
1.28571 1 0
0.214286 2.25 0
0.214286 2.125 0
0.321429 2.25 0
0.321429 2.125 0
0.214286 2.125 0
0.214286 2 0
0.321429 2.125 0
0.321429 2 0
0.321429 2.25 0
0.321429 2.125 0
0.428571 2.25 0
0.428571 2.125 0
0.321429 2.125 0
0.321429 2 0
0.428571 2.125 0
0.428571 2 0
0.428571 2.25 0
0.428571 2.125 0
0.535714 2.25 0
0.535714 2.125 0
0.428571 2.125 0
0.428571 2 0
0.535714 2.125 0
0.535714 2 0
0.535714 2.25 0
0.535714 2.125 0
0.642857 2.25 0
0.642857 2.125 0
0.535714 2.125 0
0.535714 2 0
0.642857 2.125 0
0.642857 2 0
0.642857 2.25 0
0.642857 2.125 0
0.75 2.25 0
0.75 2.125 0
0.642857 2.125 0
0.642857 2 0
0.75 2.125 0
0.75 2 0
0.75 2.25 0
0.75 2.125 0
0.857143 2.25 0
0.857143 2.125 0
0.75 2.125 0
0.75 2 0
0.857143 2.125 0
0.857143 2 0
0.857143 2.25 0
0.857143 2.125 0
0.964286 2.25 0
0.964286 2.125 0
0.857143 2.125 0
0.857143 2 0
0.964286 2.125 0
0.964286 2 0
0.964286 2.25 0
0.964286 2.125 0
1.07143 2.25 0
1.07143 2.125 0
0.964286 2.125 0
0.964286 2 0
1.07143 2.125 0
1.07143 2 0
1.07143 2.25 0
1.07143 2.125 0
1.17857 2.25 0
1.17857 2.125 0
1.07143 2.125 0
1.07143 2 0
1.17857 2.125 0
1.17857 2 0
1.17857 2.25 0
1.17857 2.125 0
1.28571 2.25 0
1.28571 2.125 0
1.17857 2.125 0
1.17857 2 0
1.28571 2.125 0
1.28571 2 0
0 0.5 0
0.107143 0.5 0
0 0.625 0
0.107143 0.625 0
0.107143 0.5 0
0.214286 0.5 0
0.107143 0.625 0
0.214286 0.625 0
0 0.625 0
0.107143 0.625 0
0 0.75 0
0.107143 0.75 0
0.107143 0.625 0
0.214286 0.625 0
0.107143 0.75 0
0.214286 0.75 0
0.214286 0.5 0
0.321429 0.5 0
0.214286 0.625 0
0.321429 0.625 0
0.321429 0.5 0
0.428571 0.5 0
0.321429 0.625 0
0.428571 0.625 0
0.214286 0.625 0
0.321429 0.625 0
0.214286 0.75 0
0.321429 0.75 0
0.321429 0.625 0
0.428571 0.625 0
0.321429 0.75 0
0.428571 0.75 0
1.28571 0.5 0
1.39286 0.5 0
1.28571 0.625 0
1.39286 0.625 0
1.39286 0.5 0
1.5 0.5 0
1.39286 0.625 0
1.5 0.625 0
1.28571 0.625 0
1.39286 0.625 0
1.28571 0.75 0
1.39286 0.75 0
1.39286 0.625 0
1.5 0.625 0
1.39286 0.75 0
1.5 0.75 0
1.28571 0.75 0
1.39286 0.75 0
1.28571 0.875 0
1.39286 0.875 0
1.39286 0.75 0
1.5 0.75 0
1.39286 0.875 0
1.5 0.875 0
1.28571 0.875 0
1.39286 0.875 0
1.28571 1 0
1.39286 1 0
1.39286 0.875 0
1.5 0.875 0
1.39286 1 0
1.5 1 0
1.5 0.5 0
1.60714 0.5 0
1.5 0.625 0
1.60714 0.625 0
1.60714 0.5 0
1.71429 0.5 0
1.60714 0.625 0
1.71429 0.625 0
1.5 0.625 0
1.60714 0.625 0
1.5 0.75 0
1.60714 0.75 0
1.60714 0.625 0
1.71429 0.625 0
1.60714 0.75 0
1.71429 0.75 0
1.71429 0.5 0
1.82143 0.5 0
1.71429 0.625 0
1.82143 0.625 0
1.82143 0.5 0
1.92857 0.5 0
1.82143 0.625 0
1.92857 0.625 0
1.71429 0.625 0
1.82143 0.625 0
1.71429 0.75 0
1.82143 0.75 0
1.82143 0.625 0
1.92857 0.625 0
1.82143 0.75 0
1.92857 0.75 0
1.92857 0.5 0
2.03571 0.5 0
1.92857 0.625 0
2.03571 0.625 0
2.03571 0.5 0
2.14286 0.5 0
2.03571 0.625 0
2.14286 0.625 0
1.92857 0.625 0
2.03571 0.625 0
1.92857 0.75 0
2.03571 0.75 0
2.03571 0.625 0
2.14286 0.625 0
2.03571 0.75 0
2.14286 0.75 0
2.14286 0 0
2.25 0 0
2.14286 0.125 0
2.25 0.125 0
2.25 0 0
2.35714 0 0
2.25 0.125 0
2.35714 0.125 0
2.14286 0.125 0
2.25 0.125 0
2.14286 0.25 0
2.25 0.25 0
2.25 0.125 0
2.35714 0.125 0
2.25 0.25 0
2.35714 0.25 0
2.14286 0.25 0
2.25 0.25 0
2.14286 0.375 0
2.25 0.375 0
2.25 0.25 0
2.35714 0.25 0
2.25 0.375 0
2.35714 0.375 0
2.14286 0.375 0
2.25 0.375 0
2.14286 0.5 0
2.25 0.5 0
2.25 0.375 0
2.35714 0.375 0
2.25 0.5 0
2.35714 0.5 0
2.14286 0.5 0
2.25 0.5 0
2.14286 0.625 0
2.25 0.625 0
2.25 0.5 0
2.35714 0.5 0
2.25 0.625 0
2.35714 0.625 0
2.14286 0.625 0
2.25 0.625 0
2.14286 0.75 0
2.25 0.75 0
2.25 0.625 0
2.35714 0.625 0
2.25 0.75 0
2.35714 0.75 0
2.35714 0 0
2.46429 0 0
[...]
POINT_DATA 3648
VECTORS velocity double
0 0 0
0 0 0
0 0 0
-0.011578 0.0130307 0
0 0 0
-0.011578 0.0130307 0
0 0 0
-0.00162937 0.0285955 0
0 0 0
0 0 0
-0.011578 0.0130307 0
-0.0345123 0.013505 0
-0.011578 0.0130307 0
-0.0345123 0.013505 0
-0.00162937 0.0285955 0
-0.00186428 0.0253338 0
0 0 0
0 0 0
-0.0345123 0.013505 0
-0.052776 0.00820646 0
-0.0345123 0.013505 0
-0.052776 0.00820646 0
-0.00186428 0.0253338 0
-0.00283114 0.0188661 0
-0.00186428 0.0253338 0
-0.00283114 0.0188661 0
0.020764 0.016089 0
0.0361562 0.0118103 0
0 0 0
0 0 0
-0.052776 0.00820646 0
-0.0591189 -0.000461257 0
-0.052776 0.00820646 0
-0.0591189 -0.000461257 0
-0.00283114 0.0188661 0
0.0030848 -0.0117141 0
-0.00283114 0.0188661 0
0.0030848 -0.0117141 0
0.0361562 0.0118103 0
0.0352241 -0.0103766 0
0 0 0
0 0 0
-0.0591189 -0.000461257 0
-0.0488421 -0.0111859 0
-0.0591189 -0.000461257 0
-0.0488421 -0.0111859 0
0.0030848 -0.0117141 0
0.00713974 -0.0164904 0
0.0030848 -0.0117141 0
0.00713974 -0.0164904 0
0.0352241 -0.0103766 0
0.0178413 -0.00131813 0
0 0 0
0 0 0
-0.0488421 -0.0111859 0
-0.00781405 -0.0389661 0
-0.0488421 -0.0111859 0
-0.00781405 -0.0389661 0
0.00713974 -0.0164904 0
-0.0202967 -0.0496875 0
0.00713974 -0.0164904 0
-0.0202967 -0.0496875 0
0.0178413 -0.00131813 0
0.00842928 -0.022495 0
0 0 0
0 0 0
-0.00781405 -0.0389661 0
0.0721974 -0.0555134 0
-0.00781405 -0.0389661 0
0.0721974 -0.0555134 0
-0.0202967 -0.0496875 0
-0.0669114 -0.0819363 0
0 0 0
0 0 0
0.0721974 -0.0555134 0
0.0811118 0.0454149 0
0.0721974 -0.0555134 0
0.0811118 0.0454149 0
-0.0669114 -0.0819363 0
-0.0656817 0.0576665 0
0 0 0
0 0 0
0.0811118 0.0454149 0
0.0277209 0.0166548 0
0.0811118 0.0454149 0
0.0277209 0.0166548 0
-0.0656817 0.0576665 0
-0.0421694 0.0400845 0
0 0 0
0 0 0
0.0277209 0.0166548 0
-0.0107653 0.0270214 0
0.0277209 0.0166548 0
-0.0107653 0.0270214 0
-0.0421694 0.0400845 0
-0.01154 0.0123042 0
0 0 0
0 0 0
0 0 0
-0.0116853 -0.0131496 0
0 0 0
-0.0116853 -0.0131496 0
0 0 0
-0.034792 -0.0135832 0
0 0 0
-0.034792 -0.0135832 0
0 0 0
-0.0530423 -0.00812436 0
0 0 0
-0.0530423 -0.00812436 0
0 0 0
-0.059205 0.000578779 0
0 0 0
-0.059205 0.000578779 0
0 0 0
-0.0488382 0.0111753 0
0 0 0
-0.0488382 0.0111753 0
0 0 0
-0.00769234 0.0391383 0
0 0 0
-0.00769234 0.0391383 0
0 0 0
0.0723477 0.0553716 0
0 0 0
0.0723477 0.0553716 0
0 0 0
0.0811587 -0.0453785 0
0 0 0
0.0811587 -0.0453785 0
0 0 0
0.0278449 -0.0166173 0
0 0 0
0.0278449 -0.0166173 0
0 0 0
-0.0107036 -0.0271204 0
0 0 0
0 0 0
-0.0116853 -0.0131496 0
-0.0016514 -0.0288692 0
-0.0116853 -0.0131496 0
-0.0016514 -0.0288692 0
-0.034792 -0.0135832 0
-0.00185204 -0.0254228 0
-0.034792 -0.0135832 0
-0.00185204 -0.0254228 0
-0.0530423 -0.00812436 0
-0.00277584 -0.0187047 0
-0.0530423 -0.00812436 0
-0.00277584 -0.0187047 0
-0.059205 0.000578779 0
0.0031922 0.0120379 0
-0.059205 0.000578779 0
0.0031922 0.0120379 0
-0.0488382 0.0111753 0
0.00733385 0.0164724 0
-0.0488382 0.0111753 0
0.00733385 0.0164724 0
-0.00769234 0.0391383 0
-0.0203329 0.0497348 0
-0.00769234 0.0391383 0
-0.0203329 0.0497348 0
0.0723477 0.0553716 0
-0.0669428 0.0819302 0
0.0723477 0.0553716 0
-0.0669428 0.0819302 0
0.0811587 -0.0453785 0
-0.0656142 -0.0577267 0
0.0811587 -0.0453785 0
-0.0656142 -0.0577267 0
0.0278449 -0.0166173 0
-0.0421611 -0.0399494 0
0.0278449 -0.0166173 0
-0.0421611 -0.0399494 0
-0.0107036 -0.0271204 0
-0.0115347 -0.0125628 0
-0.00185204 -0.0254228 0
0.0209309 -0.0161804 0
-0.00277584 -0.0187047 0
0.0362773 -0.0116504 0
-0.00277584 -0.0187047 0
0.0362773 -0.0116504 0
0.0031922 0.0120379 0
0.0352061 0.0105881 0
0.0031922 0.0120379 0
0.0352061 0.0105881 0
0.00733385 0.0164724 0
0.0176123 0.00124782 0
0.00733385 0.0164724 0
0.0176123 0.00124782 0
-0.0203329 0.0497348 0
0.00831053 0.0224673 0
0.00665672 0.0211901 0
0.0153501 0.0228694 0
0.00345925 0.0118294 0
0.0107776 0.0134037 0
0.0153501 0.0228694 0
0.020764 0.016089 0
0.0107776 0.0134037 0
0.019735 0.00897748 0
0.00345925 0.0118294 0
0.0107776 0.0134037 0
0.0520944 -0.00337121 0
0.0742 -0.00501168 0
0.0107776 0.0134037 0
0.019735 0.00897748 0
0.0742 -0.00501168 0
0.0931403 -0.00488702 0
0.020764 0.016089 0
0.0279149 0.0134577 0
0.019735 0.00897748 0
0.0252077 0.00609209 0
0.0279149 0.0134577 0
0.0361562 0.0118103 0
0.0252077 0.00609209 0
0.0300239 0.0042816 0
0.019735 0.00897748 0
0.0252077 0.00609209 0
0.0931403 -0.00488702 0
0.109529 -0.0057454 0
0.0252077 0.00609209 0
0.0300239 0.0042816 0
0.109529 -0.0057454 0
0.123488 -0.00633569 0
0.0361562 0.0118103 0
0.0402722 0.00159819 0
0.0300239 0.0042816 0
0.0334716 0.000813887 0
0.0402722 0.00159819 0
0.0352241 -0.0103766 0
0.0334716 0.000813887 0
0.0331566 -0.00267472 0
0.0300239 0.0042816 0
0.0334716 0.000813887 0
0.123488 -0.00633569 0
0.135655 -0.00749246 0
0.0334716 0.000813887 0
0.0331566 -0.00267472 0
0.135655 -0.00749246 0
0.146564 -0.0075119 0
0.0352241 -0.0103766 0
0.0261182 -0.00697221 0
0.0331566 -0.00267472 0
0.0320747 -0.00240608 0
0.0261182 -0.00697221 0
0.0178413 -0.00131813 0
0.0320747 -0.00240608 0
0.0357982 -0.000328126 0
0.0331566 -0.00267472 0
0.0320747 -0.00240608 0
0.146564 -0.0075119 0
0.156277 -0.00857395 0
0.0320747 -0.00240608 0
0.0357982 -0.000328126 0
0.156277 -0.00857395 0
0.164459 -0.00903621 0
0.0178413 -0.00131813 0
0.0114719 -0.0102122 0
0.0357982 -0.000328126 0
0.0388477 -0.00699651 0
0.0114719 -0.0102122 0
0.00842928 -0.022495 0
0.0388477 -0.00699651 0
0.0314049 -0.012928 0
0.0357982 -0.000328126 0
0.0388477 -0.00699651 0
0.164459 -0.00903621 0
0.171201 -0.0104684 0
0.0388477 -0.00699651 0
0.0314049 -0.012928 0
0.171201 -0.0104684 0
0.17708 -0.00788155 0
0.0520727 0.00337032 0
0.241023 0.0132462 0
0.0741885 0.00499889 0
0.233935 0.0122495 0
0.241023 0.0132462 0
0.157524 0.00656891 0
0.233935 0.0122495 0
0.153455 0.00621315 0
0.0741885 0.00499889 0
0.233935 0.0122495 0
0.0931443 0.00487204 0
0.227297 0.0111819 0
0.233935 0.0122495 0
0.153455 0.00621315 0
0.227297 0.0111819 0
0.149844 0.00565202 0
0.0931443 0.00487204 0
0.227297 0.0111819 0
0.109552 0.00574006 0
0.220996 0.0101824 0
0.227297 0.0111819 0
0.149844 0.00565202 0
0.220996 0.0101824 0
0.146685 0.00527787 0
0.109552 0.00574006 0
0.220996 0.0101824 0
0.123536 0.00634347 0
0.214936 0.00995635 0
0.220996 0.0101824 0
0.146685 0.00527787 0
0.214936 0.00995635 0
0.14383 0.00513336 0
0.123536 0.00634347 0
0.214936 0.00995635 0
0.135724 0.00752338 0
0.20889 0.00952717 0
0.214936 0.00995635 0
0.14383 0.00513336 0
0.20889 0.00952717 0
0.141236 0.00495361 0
0.135724 0.00752338 0
0.20889 0.00952717 0
0.146652 0.00754174 0
0.202683 0.00948183 0
0.20889 0.00952717 0
0.141236 0.00495361 0
0.202683 0.00948183 0
0.138866 0.00478642 0
0.146652 0.00754174 0
0.202683 0.00948183 0
0.156387 0.00860381 0
0.196296 0.00904835 0
0.202683 0.00948183 0
0.138866 0.00478642 0
0.196296 0.00904835 0
0.136693 0.00456871 0
0.156387 0.00860381 0
0.196296 0.00904835 0
0.164586 0.0090648 0
0.189903 0.00949013 0
0.196296 0.00904835 0
0.136693 0.00456871 0
0.189903 0.00949013 0
0.134618 0.00478855 0
0.164586 0.0090648 0
0.189903 0.00949013 0
0.171338 0.0105049 0
0.183399 0.00884034 0
0.189903 0.00949013 0
0.134618 0.00478855 0
0.183399 0.00884034 0
0.132716 0.00412956 0
0.171338 0.0105049 0
0.183399 0.00884034 0
0.177225 0.00790053 0
0.176845 0.00764823 0
0.183399 0.00884034 0
0.132716 0.00412956 0
0.176845 0.00764823 0
0.131192 0.0033744 0
0.157674 -0.00658106 0
0.240916 -0.0132543 0
0.153593 -0.00622467 0
0.233844 -0.0122627 0
0.240916 -0.0132543 0
0.0520944 -0.00337121 0
0.233844 -0.0122627 0
0.0742 -0.00501168 0
0.153593 -0.00622467 0
0.233844 -0.0122627 0
0.14997 -0.00566048 0
0.227216 -0.0111925 0
0.233844 -0.0122627 0
0.0742 -0.00501168 0
0.227216 -0.0111925 0
0.0931403 -0.00488702 0
0.14997 -0.00566048 0
0.227216 -0.0111925 0
0.146801 -0.00528132 0
0.220926 -0.0101857 0
0.227216 -0.0111925 0
0.0931403 -0.00488702 0
0.220926 -0.0101857 0
0.109529 -0.0057454 0
0.146801 -0.00528132 0
0.220926 -0.0101857 0
0.143939 -0.00513185 0
0.214884 -0.00994596 0
0.220926 -0.0101857 0
0.109529 -0.0057454 0
0.214884 -0.00994596 0
0.123488 -0.00633569 0
0.143939 -0.00513185 0
0.214884 -0.00994596 0
0.141339 -0.00494782 0
0.208864 -0.00950928 0
0.214884 -0.00994596 0
0.123488 -0.00633569 0
0.208864 -0.00950928 0
0.135655 -0.00749246 0
0.141339 -0.00494782 0
0.208864 -0.00950928 0
0.138966 -0.00477968 0
0.202689 -0.00945919 0
0.208864 -0.00950928 0
0.135655 -0.00749246 0
0.202689 -0.00945919 0
0.146564 -0.0075119 0
0.138966 -0.00477968 0
0.202689 -0.00945919 0
0.136786 -0.00456092 0
0.196335 -0.00902921 0
0.202689 -0.00945919 0
0.146564 -0.0075119 0
0.196335 -0.00902921 0
0.156277 -0.00857395 0
0.136786 -0.00456092 0
0.196335 -0.00902921 0
0.134704 -0.00477882 0
0.189973 -0.00946944 0
0.196335 -0.00902921 0
0.156277 -0.00857395 0
0.189973 -0.00946944 0
0.164459 -0.00903621 0
0.134704 -0.00477882 0
0.189973 -0.00946944 0
0.132793 -0.00412555 0
0.183498 -0.00882611 0
0.189973 -0.00946944 0
0.164459 -0.00903621 0
0.183498 -0.00882611 0
0.171201 -0.0104684 0
0.132793 -0.00412555 0
0.183498 -0.00882611 0
0.131258 -0.00337332 0
0.176975 -0.00763803 0
0.183498 -0.00882611 0
0.171201 -0.0104684 0
0.176975 -0.00763803 0
0.17708 -0.00788155 0
0.00677587 -0.0213981 0
0.00351953 -0.01193 0
0.0155137 -0.0230264 0
0.0109611 -0.0134736 0
0.00351953 -0.01193 0
0.0520727 0.00337032 0
0.0109611 -0.0134736 0
0.0741885 0.00499889 0
0.0155137 -0.0230264 0
0.0109611 -0.0134736 0
0.0209309 -0.0161804 0
0.0200026 -0.00905488 0
0.0109611 -0.0134736 0
0.0741885 0.00499889 0
0.0200026 -0.00905488 0
0.0931443 0.00487204 0
0.0209309 -0.0161804 0
0.0200026 -0.00905488 0
0.0280395 -0.0134234 0
0.0255013 -0.00609107 0
0.0200026 -0.00905488 0
0.0931443 0.00487204 0
0.0255013 -0.00609107 0
0.109552 0.00574006 0
0.0280395 -0.0134234 0
0.0255013 -0.00609107 0
0.0362773 -0.0116504 0
0.0302226 -0.0042022 0
0.0255013 -0.00609107 0
0.109552 0.00574006 0
0.0302226 -0.0042022 0
0.123536 0.00634347 0
0.0362773 -0.0116504 0
0.0302226 -0.0042022 0
0.0403679 -0.00141707 0
0.0335409 -0.000730272 0
0.0302226 -0.0042022 0
0.123536 0.00634347 0
0.0335409 -0.000730272 0
0.135724 0.00752338 0
0.0403679 -0.00141707 0
0.0335409 -0.000730272 0
0.0352061 0.0105881 0
0.0331296 0.00274204 0
0.0335409 -0.000730272 0
0.135724 0.00752338 0
0.0331296 0.00274204 0
0.146652 0.00754174 0
0.0352061 0.0105881 0
0.0331296 0.00274204 0
0.0259684 0.00705831 0
0.0319967 0.00243016 0
0.0331296 0.00274204 0
0.146652 0.00754174 0
0.0319967 0.00243016 0
0.156387 0.00860381 0
0.0259684 0.00705831 0
0.0319967 0.00243016 0
0.0176123 0.00124782 0
0.0357647 0.000287188 0
0.0319967 0.00243016 0
0.156387 0.00860381 0
0.0357647 0.000287188 0
0.164586 0.0090648 0
0.0176123 0.00124782 0
0.0357647 0.000287188 0
0.0112433 0.0101405 0
0.0388966 0.0069949 0
0.0357647 0.000287188 0
0.164586 0.0090648 0
0.0388966 0.0069949 0
0.171338 0.0105049 0
0.0112433 0.0101405 0
0.0388966 0.0069949 0
0.00831053 0.0224673 0
0.0314632 0.0129667 0
0.0388966 0.0069949 0
0.171338 0.0105049 0
0.0314632 0.0129667 0
0.177225 0.00790053 0
0 0 0
-0.000368714 0.0146522 0
0 0 0
0.0011965 0.0139278 0
-0.000368714 0.0146522 0
-0.00162937 0.0285955 0
0.0011965 0.0139278 0
0.0027627 0.029138 0
0 0 0
0.0011965 0.0139278 0
0 0 0
0.000113102 0.0126719 0
0.0011965 0.0139278 0
0.0027627 0.029138 0
0.000113102 0.0126719 0
0.00665672 0.0211901 0
-0.00162937 0.0285955 0
-0.00254157 0.0269116 0
0.0027627 0.029138 0
0.00402138 0.0262107 0
-0.00254157 0.0269116 0
-0.00186428 0.0253338 0
0.00402138 0.0262107 0
0.00679813 0.0222089 0
0.0027627 0.029138 0
0.00402138 0.0262107 0
0.00665672 0.0211901 0
0.0153501 0.0228694 0
0.00402138 0.0262107 0
0.00679813 0.0222089 0
0.0153501 0.0228694 0
0.020764 0.016089 0
-0.0202967 -0.0496875 0
-0.0428054 -0.0674684 0
-0.00937643 -0.0300193 0
-0.0301586 -0.0366842 0
-0.0428054 -0.0674684 0
-0.0669114 -0.0819363 0
-0.0301586 -0.0366842 0
-0.0612672 -0.0486263 0
-0.00937643 -0.0300193 0
-0.0301586 -0.0366842 0
0.00842928 -0.022495 0
-0.00355758 -0.00556957 0
-0.0301586 -0.0366842 0
-0.0612672 -0.0486263 0
-0.00355758 -0.00556957 0
-0.0372142 -0.0047362 0
0.00842928 -0.022495 0
-0.00355758 -0.00556957 0
0.0314049 -0.012928 0
0.029216 0.00106814 0
-0.00355758 -0.00556957 0
-0.0372142 -0.0047362 0
0.029216 0.00106814 0
0.0459134 0.0082639 0
0.0314049 -0.012928 0
0.029216 0.00106814 0
0.17708 -0.00788155 0
0.181593 -0.00721988 0
0.029216 0.00106814 0
0.0459134 0.0082639 0
0.181593 -0.00721988 0
0.183324 -0.00482563 0
-0.0669114 -0.0819363 0
-0.0795386 -0.0101805 0
-0.0612672 -0.0486263 0
-0.0755193 -0.0109545 0
-0.0795386 -0.0101805 0
-0.0656817 0.0576665 0
-0.0755193 -0.0109545 0
-0.0620393 0.0260632 0
-0.0612672 -0.0486263 0
-0.0755193 -0.0109545 0
-0.0372142 -0.0047362 0
-0.0424901 -0.0311738 0
-0.0755193 -0.0109545 0
-0.0620393 0.0260632 0
-0.0424901 -0.0311738 0
-0.0383938 0.0250297 0
-0.0656817 0.0576665 0
-0.0456926 0.0482447 0
-0.0620393 0.0260632 0
-0.047611 0.0395998 0
-0.0456926 0.0482447 0
-0.0421694 0.0400845 0
-0.047611 0.0395998 0
-0.0328283 0.027285 0
-0.0620393 0.0260632 0
-0.047611 0.0395998 0
-0.0383938 0.0250297 0
-0.0419808 0.0283792 0
-0.047611 0.0395998 0
-0.0328283 0.027285 0
-0.0419808 0.0283792 0
-0.0223851 -0.0015068 0
-0.0421694 0.0400845 0
-0.0371578 0.0270757 0
-0.0328283 0.027285 0
-0.0018058 -0.00227587 0
-0.0371578 0.0270757 0
-0.01154 0.0123042 0
-0.0018058 -0.00227587 0
0.0134196 -0.00649288 0
-0.0328283 0.027285 0
-0.0018058 -0.00227587 0
-0.0223851 -0.0015068 0
-0.0229698 -0.00873888 0
-0.0018058 -0.00227587 0
0.0134196 -0.00649288 0
-0.0229698 -0.00873888 0
-0.0295431 -0.00982017 0
0 0 0
0 0 0
-0.00326539 0.00670272 0
-0.0383158 0.0340406 0
0 0 0
0 0 0
-0.0383158 0.0340406 0
-0.0376777 -0.0336391 0
-0.00326539 0.00670272 0
-0.0383158 0.0340406 0
-0.0107653 0.0270214 0
0.0124323 0.0274668 0
-0.0383158 0.0340406 0
-0.0376777 -0.0336391 0
0.0124323 0.0274668 0
0.0144351 -0.0293939 0
-0.0107653 0.0270214 0
0.0124323 0.0274668 0
-0.0114422 0.0369967 0
0.0069938 -0.0299733 0
0.0124323 0.0274668 0
0.0144351 -0.0293939 0
0.0069938 -0.0299733 0
-0.00385218 0.0376145 0
-0.0114422 0.0369967 0
0.0069938 -0.0299733 0
-0.01154 0.0123042 0
-0.00644924 -0.0308622 0
0.0069938 -0.0299733 0
-0.00385218 0.0376145 0
-0.00644924 -0.0308622 0
-0.0207725 0.0669938 0
-0.01154 0.0123042 0
-0.00644924 -0.0308622 0
0.0134196 -0.00649288 0
-0.00989236 0.00873407 0
-0.00644924 -0.0308622 0
-0.0207725 0.0669938 0
-0.00989236 0.00873407 0
-0.0205188 0.0559625 0
0.0134196 -0.00649288 0
-0.00989236 0.00873407 0
-0.0295431 -0.00982017 0
-0.010995 0.0175085 0
-0.00989236 0.00873407 0
-0.0205188 0.0559625 0
-0.010995 0.0175085 0
0.0101682 0.0350931 0
0 0 0
0 0 0
-0.0376777 -0.0336391 0
-0.0186232 0.0102992 0
0 0 0
0 0 0
-0.0186232 0.0102992 0
-0.0234969 -0.00371237 0
-0.0376777 -0.0336391 0
-0.0186232 0.0102992 0
0.0144351 -0.0293939 0
-0.0294435 0.0338328 0
-0.0186232 0.0102992 0
-0.0234969 -0.00371237 0
-0.0294435 0.0338328 0
-0.0444485 -0.00235636 0
0.0144351 -0.0293939 0
-0.0294435 0.0338328 0
-0.00385218 0.0376145 0
-0.0285409 0.04669 0
-0.0294435 0.0338328 0
-0.0444485 -0.00235636 0
-0.0285409 0.04669 0
-0.0267939 0.00114461 0
-0.00385218 0.0376145 0
-0.0285409 0.04669 0
-0.0207725 0.0669938 0
-0.00346787 0.0258367 0
-0.0285409 0.04669 0
-0.0267939 0.00114461 0
-0.00346787 0.0258367 0
0.0179992 -0.0049694 0
-0.0207725 0.0669938 0
-0.00346787 0.0258367 0
-0.0205188 0.0559625 0
-0.0161374 0.0114416 0
-0.00346787 0.0258367 0
0.0179992 -0.0049694 0
-0.0161374 0.0114416 0
-0.0161161 -0.0154835 0
-0.0205188 0.0559625 0
-0.0161374 0.0114416 0
0.0101682 0.0350931 0
0.0208603 0.0143085 0
-0.0161374 0.0114416 0
-0.0161161 -0.0154835 0
0.0208603 0.0143085 0
0.00619591 -0.00136841 0
0 0 0
0 0 0
-0.0234969 -0.00371237 0
-0.0172643 -0.00413909 0
0 0 0
0 0 0
-0.0172643 -0.00413909 0
-0.00421793 -0.0108036 0
-0.0234969 -0.00371237 0
-0.0172643 -0.00413909 0
-0.0444485 -0.00235636 0
-0.042438 -0.0158083 0
-0.0172643 -0.00413909 0
-0.00421793 -0.0108036 0
-0.042438 -0.0158083 0
-0.0288251 -0.0297014 0
-0.0444485 -0.00235636 0
-0.042438 -0.0158083 0
-0.0267939 0.00114461 0
-0.0303354 -0.0178809 0
-0.042438 -0.0158083 0
-0.0288251 -0.0297014 0
-0.0303354 -0.0178809 0
-0.0310224 -0.0426406 0
-0.0267939 0.00114461 0
-0.0303354 -0.0178809 0
0.0179992 -0.0049694 0
0.0100944 0.00111718 0
-0.0303354 -0.0178809 0
-0.0310224 -0.0426406 0
0.0100944 0.00111718 0
-0.0107447 -0.0365989 0
0.0179992 -0.0049694 0
0.0100944 0.00111718 0
-0.0161161 -0.0154835 0
-0.00410191 0.00680624 0
0.0100944 0.00111718 0
-0.0107447 -0.0365989 0
-0.00410191 0.00680624 0
-0.000671647 -0.0220115 0
-0.0161161 -0.0154835 0
-0.00410191 0.00680624 0
0.00619591 -0.00136841 0
0.0017895 -0.0168868 0
-0.00410191 0.00680624 0
-0.000671647 -0.0220115 0
0.0017895 -0.0168868 0
0.00283925 -0.00375829 0
0 0 0
0 0 0
-0.00421793 -0.0108036 0
0.00260332 0.00286464 0
0 0 0
0 0 0
0.00260332 0.00286464 0
0 0 0
-0.00421793 -0.0108036 0
0.00260332 0.00286464 0
-0.0288251 -0.0297014 0
-0.010838 -0.00702908 0
0.00260332 0.00286464 0
0 0 0
-0.010838 -0.00702908 0
0 0 0
-0.0288251 -0.0297014 0
-0.010838 -0.00702908 0
-0.0310224 -0.0426406 0
-0.0133326 -0.0357744 0
-0.010838 -0.00702908 0
0 0 0
-0.0133326 -0.0357744 0
0 0 0
-0.0310224 -0.0426406 0
-0.0133326 -0.0357744 0
-0.0107447 -0.0365989 0
-0.00995179 -0.063218 0
-0.0133326 -0.0357744 0
0 0 0
-0.00995179 -0.063218 0
0 0 0
-0.0107447 -0.0365989 0
-0.00995179 -0.063218 0
-0.000671647 -0.0220115 0
-0.00205599 -0.0773633 0
-0.00995179 -0.063218 0
0 0 0
-0.00205599 -0.0773633 0
0 0 0
-0.000671647 -0.0220115 0
-0.00205599 -0.0773633 0
0.00283925 -0.00375829 0
-0.00520799 -0.0858335 0
-0.00205599 -0.0773633 0
0 0 0
-0.00520799 -0.0858335 0
0 0 0
0.177225 0.00790053 0
0.176845 0.00764823 0
0.181742 0.00724658 0
0.171315 0.00580016 0
0.176845 0.00764823 0
0.131192 0.0033744 0
0.171315 0.00580016 0
0.130037 0.00263048 0
0.181742 0.00724658 0
0.171315 0.00580016 0
0.183467 0.00483562 0
0.167974 0.00378501 0
0.171315 0.00580016 0
0.130037 0.00263048 0
0.167974 0.00378501 0
0.128919 0.0018614 0
0.165483 0.00678204 0
0.107718 0.00597726 0
0.161504 0.00663408 0
0.110268 0.00578281 0
0.107718 0.00597726 0
0.227344 -2.25459e-06 0
0.110268 0.00578281 0
0.214768 -2.10951e-06 0
0.161504 0.00663408 0
0.110268 0.00578281 0
0.157524 0.00656891 0
0.112386 0.00528452 0
0.110268 0.00578281 0
0.214768 -2.10951e-06 0
0.112386 0.00528452 0
0.203287 -1.67263e-06 0
0.157524 0.00656891 0
0.112386 0.00528452 0
0.153455 0.00621315 0
0.114332 0.0050342 0
0.112386 0.00528452 0
0.203287 -1.67263e-06 0
0.114332 0.0050342 0
0.192713 -1.27442e-06 0
0.153455 0.00621315 0
0.114332 0.0050342 0
0.149844 0.00565202 0
0.116019 0.00455626 0
0.114332 0.0050342 0
0.192713 -1.27442e-06 0
0.116019 0.00455626 0
0.183034 -1.36085e-07 0
0.149844 0.00565202 0
0.116019 0.00455626 0
0.146685 0.00527787 0
0.117422 0.00432447 0
0.116019 0.00455626 0
0.183034 -1.36085e-07 0
0.117422 0.00432447 0
0.174269 1.08622e-06 0
0.146685 0.00527787 0
0.117422 0.00432447 0
0.14383 0.00513336 0
0.118506 0.00392005 0
0.117422 0.00432447 0
0.174269 1.08622e-06 0
0.118506 0.00392005 0
0.166412 2.35472e-06 0
0.14383 0.00513336 0
0.118506 0.00392005 0
0.141236 0.00495361 0
0.119229 0.0038668 0
0.118506 0.00392005 0
0.166412 2.35472e-06 0
0.119229 0.0038668 0
0.159373 3.21376e-06 0
0.141236 0.00495361 0
0.119229 0.0038668 0
0.138866 0.00478642 0
0.119602 0.00344934 0
0.119229 0.0038668 0
0.159373 3.21376e-06 0
0.119602 0.00344934 0
0.153011 3.67348e-06 0
0.138866 0.00478642 0
0.119602 0.00344934 0
0.136693 0.00456871 0
0.119625 0.0034713 0
0.119602 0.00344934 0
0.153011 3.67348e-06 0
0.119625 0.0034713 0
0.147311 5.34601e-06 0
0.136693 0.00456871 0
0.119625 0.0034713 0
0.134618 0.00478855 0
0.119362 0.00311123 0
0.119625 0.0034713 0
0.147311 5.34601e-06 0
0.119362 0.00311123 0
0.142283 5.80756e-06 0
0.134618 0.00478855 0
0.119362 0.00311123 0
0.132716 0.00412956 0
0.118967 0.00311159 0
0.119362 0.00311123 0
0.142283 5.80756e-06 0
0.118967 0.00311159 0
0.137775 3.47321e-06 0
0.132716 0.00412956 0
0.118967 0.00311159 0
0.131192 0.0033744 0
0.118616 0.00237631 0
0.118967 0.00311159 0