# vtk DataFile Version 3.0
#This file was generated by the deal.II library on 2026/3/26 at 11:17:50
ASCII
DATASET UNSTRUCTURED_GRID

POINTS 3648 double
0 0 0
0.214286 0 0
0 0.25 0
0.214286 0.25 0
0 0.25 0
0.214286 0.25 0
0 0.5 0
0.214286 0.5 0
0.214286 0 0
0.428571 0 0
0.214286 0.25 0
0.428571 0.25 0
0.214286 0.25 0
0.428571 0.25 0
0.214286 0.5 0
0.428571 0.5 0
0.428571 0 0
0.642857 0 0
0.428571 0.25 0
0.642857 0.25 0
0.428571 0.25 0
0.642857 0.25 0
0.428571 0.5 0
0.642857 0.5 0
0.428571 0.5 0
0.642857 0.5 0
0.428571 0.75 0
0.642857 0.75 0
0.642857 0 0
0.857143 0 0
0.642857 0.25 0
0.857143 0.25 0
0.642857 0.25 0
0.857143 0.25 0
0.642857 0.5 0
0.857143 0.5 0
0.642857 0.5 0
0.857143 0.5 0
0.642857 0.75 0
0.857143 0.75 0
0.857143 0 0
1.07143 0 0
0.857143 0.25 0
1.07143 0.25 0
0.857143 0.25 0
1.07143 0.25 0
0.857143 0.5 0
1.07143 0.5 0
0.857143 0.5 0
1.07143 0.5 0
0.857143 0.75 0
1.07143 0.75 0
1.07143 0 0
1.28571 0 0
1.07143 0.25 0
1.28571 0.25 0
1.07143 0.25 0
1.28571 0.25 0
1.07143 0.5 0
1.28571 0.5 0
1.07143 0.5 0
1.28571 0.5 0
1.07143 0.75 0
1.28571 0.75 0
1.28571 0 0
1.5 0 0
1.28571 0.25 0
1.5 0.25 0
1.28571 0.25 0
1.5 0.25 0
1.28571 0.5 0
1.5 0.5 0
1.5 0 0
1.71429 0 0
1.5 0.25 0
1.71429 0.25 0
1.5 0.25 0
1.71429 0.25 0
1.5 0.5 0
1.71429 0.5 0
1.71429 0 0
1.92857 0 0
1.71429 0.25 0
1.92857 0.25 0
1.71429 0.25 0
1.92857 0.25 0
1.71429 0.5 0
1.92857 0.5 0
1.92857 0 0
2.14286 0 0
1.92857 0.25 0
2.14286 0.25 0
1.92857 0.25 0
2.14286 0.25 0
1.92857 0.5 0
2.14286 0.5 0
0 3 0
0 2.75 0
0.214286 3 0
0.214286 2.75 0
0.214286 3 0
0.214286 2.75 0
0.428571 3 0
0.428571 2.75 0
0.428571 3 0
0.428571 2.75 0
0.642857 3 0
0.642857 2.75 0
0.642857 3 0
0.642857 2.75 0
0.857143 3 0
0.857143 2.75 0
0.857143 3 0
0.857143 2.75 0
1.07143 3 0
1.07143 2.75 0
1.07143 3 0
1.07143 2.75 0
1.28571 3 0
1.28571 2.75 0
1.28571 3 0
1.28571 2.75 0
1.5 3 0
1.5 2.75 0
1.5 3 0
1.5 2.75 0
1.71429 3 0
1.71429 2.75 0
1.71429 3 0
1.71429 2.75 0
1.92857 3 0
1.92857 2.75 0
1.92857 3 0
1.92857 2.75 0
2.14286 3 0
2.14286 2.75 0
0 2.75 0
0 2.5 0
0.214286 2.75 0
0.214286 2.5 0
0.214286 2.75 0
0.214286 2.5 0
0.428571 2.75 0
0.428571 2.5 0
0.428571 2.75 0
0.428571 2.5 0
0.642857 2.75 0
0.642857 2.5 0
0.642857 2.75 0
0.642857 2.5 0
0.857143 2.75 0
0.857143 2.5 0
0.857143 2.75 0
0.857143 2.5 0
1.07143 2.75 0
1.07143 2.5 0
1.07143 2.75 0
1.07143 2.5 0
1.28571 2.75 0
1.28571 2.5 0
1.28571 2.75 0
1.28571 2.5 0
1.5 2.75 0
1.5 2.5 0
1.5 2.75 0
1.5 2.5 0
1.71429 2.75 0
1.71429 2.5 0
1.71429 2.75 0
1.71429 2.5 0
1.92857 2.75 0
1.92857 2.5 0
1.92857 2.75 0
1.92857 2.5 0
2.14286 2.75 0
2.14286 2.5 0
0.428571 2.5 0
0.428571 2.25 0
0.642857 2.5 0
0.642857 2.25 0
0.642857 2.5 0
0.642857 2.25 0
0.857143 2.5 0
0.857143 2.25 0
0.857143 2.5 0
0.857143 2.25 0
1.07143 2.5 0
1.07143 2.25 0
1.07143 2.5 0
1.07143 2.25 0
1.28571 2.5 0
1.28571 2.25 0
0.214286 0.75 0
0.321429 0.75 0
0.214286 0.875 0
0.321429 0.875 0
0.321429 0.75 0
0.428571 0.75 0
0.321429 0.875 0
0.428571 0.875 0
0.214286 0.875 0
0.321429 0.875 0
0.214286 1 0
0.321429 1 0
0.321429 0.875 0
0.428571 0.875 0
0.321429 1 0
0.428571 1 0
0.428571 0.75 0
0.535714 0.75 0
0.428571 0.875 0
0.535714 0.875 0
0.535714 0.75 0
0.642857 0.75 0
0.535714 0.875 0
0.642857 0.875 0
0.428571 0.875 0
0.535714 0.875 0
0.428571 1 0
0.535714 1 0
0.535714 0.875 0
0.642857 0.875 0
0.535714 1 0
0.642857 1 0
0.642857 0.75 0
0.75 0.75 0
0.642857 0.875 0
0.75 0.875 0
0.75 0.75 0
0.857143 0.75 0
0.75 0.875 0
0.857143 0.875 0
0.642857 0.875 0
0.75 0.875 0
0.642857 1 0
0.75 1 0
0.75 0.875 0
0.857143 0.875 0
0.75 1 0
0.857143 1 0
0.857143 0.75 0
0.964286 0.75 0
0.857143 0.875 0
0.964286 0.875 0
0.964286 0.75 0
1.07143 0.75 0
0.964286 0.875 0
1.07143 0.875 0
0.857143 0.875 0
0.964286 0.875 0
0.857143 1 0
0.964286 1 0
0.964286 0.875 0
1.07143 0.875 0
0.964286 1 0
1.07143 1 0
1.07143 0.75 0
1.17857 0.75 0
1.07143 0.875 0
1.17857 0.875 0
1.17857 0.75 0
1.28571 0.75 0
1.17857 0.875 0
1.28571 0.875 0
1.07143 0.875 0
1.17857 0.875 0
1.07143 1 0
1.17857 1 0
1.17857 0.875 0
1.28571 0.875 0
1.17857 1 0
1.28571 1 0
0.214286 2 0
0.214286 1.875 0
0.321429 2 0
0.321429 1.875 0
0.214286 1.875 0
0.214286 1.75 0
0.321429 1.875 0
0.321429 1.75 0
0.321429 2 0
0.321429 1.875 0
0.428571 2 0
0.428571 1.875 0
0.321429 1.875 0
0.321429 1.75 0
0.428571 1.875 0
0.428571 1.75 0
0.428571 2 0
0.428571 1.875 0
0.535714 2 0
0.535714 1.875 0
0.428571 1.875 0
0.428571 1.75 0
0.535714 1.875 0
0.535714 1.75 0
0.535714 2 0
0.535714 1.875 0
0.642857 2 0
0.642857 1.875 0
0.535714 1.875 0
0.535714 1.75 0
0.642857 1.875 0
0.642857 1.75 0
0.642857 2 0
0.642857 1.875 0
0.75 2 0
0.75 1.875 0
0.642857 1.875 0
0.642857 1.75 0
0.75 1.875 0
0.75 1.75 0
0.75 2 0
0.75 1.875 0
0.857143 2 0
0.857143 1.875 0
0.75 1.875 0
0.75 1.75 0
0.857143 1.875 0
0.857143 1.75 0
0.857143 2 0
0.857143 1.875 0
0.964286 2 0
0.964286 1.875 0
0.857143 1.875 0
0.857143 1.75 0
0.964286 1.875 0
0.964286 1.75 0
0.964286 2 0
0.964286 1.875 0
1.07143 2 0
1.07143 1.875 0
0.964286 1.875 0
0.964286 1.75 0
1.07143 1.875 0
1.07143 1.75 0
1.07143 2 0
1.07143 1.875 0
1.17857 2 0
1.17857 1.875 0
1.07143 1.875 0
1.07143 1.75 0
1.17857 1.875 0
1.17857 1.75 0
1.17857 2 0
1.17857 1.875 0
1.28571 2 0
1.28571 1.875 0
1.17857 1.875 0
1.17857 1.75 0
1.28571 1.875 0
1.28571 1.75 0
0.214286 1.25 0
0.214286 1.125 0
0.321429 1.25 0
0.321429 1.125 0
0.214286 1.125 0
0.214286 1 0
0.321429 1.125 0
0.321429 1 0
0.321429 1.25 0
0.321429 1.125 0
0.428571 1.25 0
0.428571 1.125 0
0.321429 1.125 0
0.321429 1 0
0.428571 1.125 0
0.428571 1 0
0.428571 1.25 0
0.428571 1.125 0
0.535714 1.25 0
0.535714 1.125 0
0.428571 1.125 0
0.428571 1 0
0.535714 1.125 0
0.535714 1 0
0.535714 1.25 0
0.535714 1.125 0
0.642857 1.25 0
0.642857 1.125 0
0.535714 1.125 0
0.535714 1 0
0.642857 1.125 0
0.642857 1 0
0.642857 1.25 0
0.642857 1.125 0
0.75 1.25 0
0.75 1.125 0
0.642857 1.125 0
0.642857 1 0
0.75 1.125 0
0.75 1 0
0.75 1.25 0
0.75 1.125 0
0.857143 1.25 0
0.857143 1.125 0
0.75 1.125 0
0.75 1 0
0.857143 1.125 0
0.857143 1 0
0.857143 1.25 0
0.857143 1.125 0
0.964286 1.25 0
0.964286 1.125 0
0.857143 1.125 0
0.857143 1 0
0.964286 1.125 0
0.964286 1 0
0.964286 1.25 0
0.964286 1.125 0
1.07143 1.25 0
1.07143 1.125 0
0.964286 1.125 0
0.964286 1 0
1.07143 1.125 0
1.07143 1 0
1.07143 1.25 0
1.07143 1.125 0
1.17857 1.25 0
1.17857 1.125 0
1.07143 1.125 0
1.07143 1 0
1.17857 1.125 0
1.17857 1 0
1.17857 1.25 0
1.17857 1.125 0
1.28571 1.25 0
1.28571 1.125 0
1.17857 1.125 0
1.17857 1 0
1.28571 1.125 0
1.28571 1 0
0.214286 2.25 0
0.214286 2.125 0
0.321429 2.25 0
0.321429 2.125 0
0.214286 2.125 0
0.214286 2 0
0.321429 2.125 0
0.321429 2 0
0.321429 2.25 0
0.321429 2.125 0
0.428571 2.25 0
0.428571 2.125 0
0.321429 2.125 0
0.321429 2 0
0.428571 2.125 0
0.428571 2 0
0.428571 2.25 0
0.428571 2.125 0
0.535714 2.25 0
0.535714 2.125 0
0.428571 2.125 0
0.428571 2 0
0.535714 2.125 0
0.535714 2 0
0.535714 2.25 0
0.535714 2.125 0
0.642857 2.25 0
0.642857 2.125 0
0.535714 2.125 0
0.535714 2 0
0.642857 2.125 0
0.642857 2 0
0.642857 2.25 0
0.642857 2.125 0
0.75 2.25 0
0.75 2.125 0
0.642857 2.125 0
0.642857 2 0
0.75 2.125 0
0.75 2 0
0.75 2.25 0
0.75 2.125 0
0.857143 2.25 0
0.857143 2.125 0
0.75 2.125 0
0.75 2 0
0.857143 2.125 0
0.857143 2 0
0.857143 2.25 0
0.857143 2.125 0
0.964286 2.25 0
0.964286 2.125 0
0.857143 2.125 0
0.857143 2 0
0.964286 2.125 0
0.964286 2 0
0.964286 2.25 0
0.964286 2.125 0
1.07143 2.25 0
1.07143 2.125 0
0.964286 2.125 0
0.964286 2 0
1.07143 2.125 0
1.07143 2 0
1.07143 2.25 0
1.07143 2.125 0
1.17857 2.25 0
1.17857 2.125 0
1.07143 2.125 0
1.07143 2 0
1.17857 2.125 0
1.17857 2 0
1.17857 2.25 0
1.17857 2.125 0
1.28571 2.25 0
1.28571 2.125 0
1.17857 2.125 0
1.17857 2 0
1.28571 2.125 0
1.28571 2 0
0 0.5 0
0.107143 0.5 0
0 0.625 0
0.107143 0.625 0
0.107143 0.5 0
0.214286 0.5 0
0.107143 0.625 0
0.214286 0.625 0
0 0.625 0
0.107143 0.625 0
0 0.75 0
0.107143 0.75 0
0.107143 0.625 0
0.214286 0.625 0
0.107143 0.75 0
0.214286 0.75 0
0.214286 0.5 0
0.321429 0.5 0
0.214286 0.625 0
0.321429 0.625 0
0.321429 0.5 0
0.428571 0.5 0
0.321429 0.625 0
0.428571 0.625 0
0.214286 0.625 0
0.321429 0.625 0
0.214286 0.75 0
0.321429 0.75 0
0.321429 0.625 0
0.428571 0.625 0
0.321429 0.75 0
0.428571 0.75 0
1.28571 0.5 0
1.39286 0.5 0
1.28571 0.625 0
1.39286 0.625 0
1.39286 0.5 0
1.5 0.5 0
1.39286 0.625 0
1.5 0.625 0
1.28571 0.625 0
1.39286 0.625 0
1.28571 0.75 0
1.39286 0.75 0
1.39286 0.625 0
1.5 0.625 0
1.39286 0.75 0
1.5 0.75 0
1.28571 0.75 0
1.39286 0.75 0
1.28571 0.875 0
1.39286 0.875 0
1.39286 0.75 0
1.5 0.75 0
1.39286 0.875 0
1.5 0.875 0
1.28571 0.875 0
1.39286 0.875 0
1.28571 1 0
1.39286 1 0
1.39286 0.875 0
1.5 0.875 0
1.39286 1 0
1.5 1 0
1.5 0.5 0
1.60714 0.5 0
1.5 0.625 0
1.60714 0.625 0
1.60714 0.5 0
1.71429 0.5 0
1.60714 0.625 0
1.71429 0.625 0
1.5 0.625 0
1.60714 0.625 0
1.5 0.75 0
1.60714 0.75 0
1.60714 0.625 0
1.71429 0.625 0
1.60714 0.75 0
1.71429 0.75 0
1.71429 0.5 0
1.82143 0.5 0
1.71429 0.625 0
1.82143 0.625 0
1.82143 0.5 0
1.92857 0.5 0
1.82143 0.625 0
1.92857 0.625 0
1.71429 0.625 0
1.82143 0.625 0
1.71429 0.75 0
1.82143 0.75 0
1.82143 0.625 0
1.92857 0.625 0
1.82143 0.75 0
1.92857 0.75 0
1.92857 0.5 0
2.03571 0.5 0
1.92857 0.625 0
2.03571 0.625 0
2.03571 0.5 0
2.14286 0.5 0
2.03571 0.625 0
2.14286 0.625 0
1.92857 0.625 0
2.03571 0.625 0
1.92857 0.75 0
2.03571 0.75 0
2.03571 0.625 0
2.14286 0.625 0
2.03571 0.75 0
2.14286 0.75 0
2.14286 0 0
2.25 0 0
2.14286 0.125 0
2.25 0.125 0
2.25 0 0
2.35714 0 0
2.25 0.125 0
2.35714 0.125 0
2.14286 0.125 0
2.25 0.125 0
2.14286 0.25 0
2.25 0.25 0
2.25 0.125 0
2.35714 0.125 0
2.25 0.25 0
2.35714 0.25 0
2.14286 0.25 0
2.25 0.25 0
2.14286 0.375 0
2.25 0.375 0
2.25 0.25 0
2.35714 0.25 0
2.25 0.375 0
2.35714 0.375 0
2.14286 0.375 0
2.25 0.375 0
2.14286 0.5 0
2.25 0.5 0
2.25 0.375 0
2.35714 0.375 0
2.25 0.5 0
2.35714 0.5 0
2.14286 0.5 0
2.25 0.5 0
2.14286 0.625 0
2.25 0.625 0
2.25 0.5 0
2.35714 0.5 0
2.25 0.625 0
2.35714 0.625 0
2.14286 0.625 0
2.25 0.625 0
2.14286 0.75 0
2.25 0.75 0
2.25 0.625 0
2.35714 0.625 0
2.25 0.75 0
2.35714 0.75 0
2.35714 0 0
2.46429 0 0
[...]
POINT_DATA 3648
VECTORS velocity double
0 0 0
0 0 0
0 0 0
-0.0115525 0.0129986 0
0 0 0
-0.0115525 0.0129986 0
0 0 0
-0.00156801 0.0284507 0
0 0 0
0 0 0
-0.0115525 0.0129986 0
-0.0342987 0.0133183 0
-0.0115525 0.0129986 0
-0.0342987 0.0133183 0
-0.00156801 0.0284507 0
-0.00174765 0.0249678 0
0 0 0
0 0 0
-0.0342987 0.0133183 0
-0.0522957 0.00806536 0
-0.0342987 0.0133183 0
-0.0522957 0.00806536 0
-0.00174765 0.0249678 0
-0.00267462 0.0185337 0
-0.00174765 0.0249678 0
-0.00267462 0.0185337 0
0.020604 0.0158378 0
0.0357454 0.011617 0
0 0 0
0 0 0
-0.0522957 0.00806536 0
-0.058563 -0.000431978 0
-0.0522957 0.00806536 0
-0.058563 -0.000431978 0
-0.00267462 0.0185337 0
0.00327818 -0.0116097 0
-0.00267462 0.0185337 0
0.00327818 -0.0116097 0
0.0357454 0.011617 0
0.0346971 -0.0103053 0
0 0 0
0 0 0
-0.058563 -0.000431978 0
-0.0484417 -0.0110635 0
-0.058563 -0.000431978 0
-0.0484417 -0.0110635 0
0.00327818 -0.0116097 0
0.00720036 -0.0161278 0
0.00327818 -0.0116097 0
0.00720036 -0.0161278 0
0.0346971 -0.0103053 0
0.0175868 -0.00108423 0
0 0 0
0 0 0
-0.0484417 -0.0110635 0
-0.00759537 -0.0388653 0
-0.0484417 -0.0110635 0
-0.00759537 -0.0388653 0
0.00720036 -0.0161278 0
-0.0201248 -0.0497396 0
0.00720036 -0.0161278 0
-0.0201248 -0.0497396 0
0.0175868 -0.00108423 0
0.00828572 -0.0226416 0
0 0 0
0 0 0
-0.00759537 -0.0388653 0
0.0728077 -0.0560884 0
-0.00759537 -0.0388653 0
0.0728077 -0.0560884 0
-0.0201248 -0.0497396 0
-0.0672735 -0.0822021 0
0 0 0
0 0 0
0.0728077 -0.0560884 0
0.0819363 0.0457995 0
0.0728077 -0.0560884 0
0.0819363 0.0457995 0
-0.0672735 -0.0822021 0
-0.0662569 0.0578054 0
0 0 0
0 0 0
0.0819363 0.0457995 0
0.0281239 0.0167534 0
0.0819363 0.0457995 0
0.0281239 0.0167534 0
-0.0662569 0.0578054 0
-0.0423003 0.040366 0
0 0 0
0 0 0
0.0281239 0.0167534 0
-0.0103585 0.0269303 0
0.0281239 0.0167534 0
-0.0103585 0.0269303 0
-0.0423003 0.040366 0
-0.011827 0.0122355 0
0 0 0
0 0 0
0 0 0
-0.0116482 -0.0131045 0
0 0 0
-0.0116482 -0.0131045 0
0 0 0
-0.0345315 -0.0133686 0
0 0 0
-0.0345315 -0.0133686 0
0 0 0
-0.0524872 -0.00797592 0
0 0 0
-0.0524872 -0.00797592 0
0 0 0
-0.0585833 0.000533721 0
0 0 0
-0.0585833 0.000533721 0
0 0 0
-0.0484045 0.0110327 0
0 0 0
-0.0484045 0.0110327 0
0 0 0
-0.00752815 0.0389494 0
0 0 0
-0.00752815 0.0389494 0
0 0 0
0.0729379 0.0560851 0
0 0 0
0.0729379 0.0560851 0
0 0 0
0.0820461 -0.0458107 0
0 0 0
0.0820461 -0.0458107 0
0 0 0
0.0282818 -0.0166962 0
0 0 0
0.0282818 -0.0166962 0
0 0 0
-0.0102556 -0.0270447 0
0 0 0
0 0 0
-0.0116482 -0.0131045 0
-0.00157819 -0.0286844 0
-0.0116482 -0.0131045 0
-0.00157819 -0.0286844 0
-0.0345315 -0.0133686 0
-0.00172021 -0.0250119 0
-0.0345315 -0.0133686 0
-0.00172021 -0.0250119 0
-0.0524872 -0.00797592 0
-0.00259868 -0.0183432 0
-0.0524872 -0.00797592 0
-0.00259868 -0.0183432 0
-0.0585833 0.000533721 0
0.0033996 0.0118724 0
-0.0585833 0.000533721 0
0.0033996 0.0118724 0
-0.0484045 0.0110327 0
0.00738198 0.0160699 0
-0.0484045 0.0110327 0
0.00738198 0.0160699 0
-0.00752815 0.0389494 0
-0.0200798 0.049724 0
-0.00752815 0.0389494 0
-0.0200798 0.049724 0
0.0729379 0.0560851 0
-0.0673333 0.0822268 0
0.0729379 0.0560851 0
-0.0673333 0.0822268 0
0.0820461 -0.0458107 0
-0.0662742 -0.0578052 0
0.0820461 -0.0458107 0
-0.0662742 -0.0578052 0
0.0282818 -0.0166962 0
-0.0423141 -0.0402638 0
0.0282818 -0.0166962 0
-0.0423141 -0.0402638 0
-0.0102556 -0.0270447 0
-0.0118445 -0.0124563 0
-0.00172021 -0.0250119 0
0.0207452 -0.0158995 0
-0.00259868 -0.0183432 0
0.0358093 -0.0114441 0
-0.00259868 -0.0183432 0
0.0358093 -0.0114441 0
0.0033996 0.0118724 0
0.0346278 0.0104688 0
0.0033996 0.0118724 0
0.0346278 0.0104688 0
0.00738198 0.0160699 0
0.0173735 0.0010087 0
0.00738198 0.0160699 0
0.0173735 0.0010087 0
-0.0200798 0.049724 0
0.00814099 0.0225699 0
0.00658731 0.0210358 0
0.0152479 0.0227342 0
0.00342283 0.0117452 0
0.0106572 0.0133341 0
0.0152479 0.0227342 0
0.020604 0.0158378 0
0.0106572 0.0133341 0
0.0195046 0.00885594 0
0.00342283 0.0117452 0
0.0106572 0.0133341 0
0.0520277 -0.00336835 0
0.0740842 -0.00501471 0
0.0106572 0.0133341 0
0.0195046 0.00885594 0
0.0740842 -0.00501471 0
0.0929862 -0.00490007 0
0.020604 0.0158378 0
0.0276517 0.0132421 0
0.0195046 0.00885594 0
0.0248586 0.00600444 0
0.0276517 0.0132421 0
0.0357454 0.011617 0
0.0248586 0.00600444 0
0.0296026 0.00421592 0
0.0195046 0.00885594 0
0.0248586 0.00600444 0
0.0929862 -0.00490007 0
0.109341 -0.00575915 0
0.0248586 0.00600444 0
0.0296026 0.00421592 0
0.109341 -0.00575915 0
0.123263 -0.00634067 0
0.0357454 0.011617 0
0.0397474 0.00151427 0
0.0296026 0.00421592 0
0.0330021 0.000788163 0
0.0397474 0.00151427 0
0.0346971 -0.0103053 0
0.0330021 0.000788163 0
0.0326802 -0.00265971 0
0.0296026 0.00421592 0
0.0330021 0.000788163 0
0.123263 -0.00634067 0
0.135391 -0.00746969 0
0.0330021 0.000788163 0
0.0326802 -0.00265971 0
0.135391 -0.00746969 0
0.146255 -0.00747525 0
0.0346971 -0.0103053 0
0.0256861 -0.00679105 0
0.0326802 -0.00265971 0
0.0316487 -0.00234339 0
0.0256861 -0.00679105 0
0.0175868 -0.00108423 0
0.0316487 -0.00234339 0
0.0354328 -0.000258662 0
0.0326802 -0.00265971 0
0.0316487 -0.00234339 0
0.146255 -0.00747525 0
0.155911 -0.00851013 0
0.0316487 -0.00234339 0
0.0354328 -0.000258662 0
0.155911 -0.00851013 0
0.164029 -0.00894554 0
0.0175868 -0.00108423 0
0.0113556 -0.0102032 0
0.0354328 -0.000258662 0
0.0384598 -0.00696877 0
0.0113556 -0.0102032 0
0.00828572 -0.0226416 0
0.0384598 -0.00696877 0
0.030887 -0.0129315 0
0.0354328 -0.000258662 0
0.0384598 -0.00696877 0
0.164029 -0.00894554 0
0.170707 -0.0103479 0
0.0384598 -0.00696877 0
0.030887 -0.0129315 0
0.170707 -0.0103479 0
0.176533 -0.00775191 0
0.0520379 0.0033766 0
0.240564 0.0132682 0
0.074124 0.00501545 0
0.233531 0.0122831 0
0.240564 0.0132682 0
0.158033 0.00658895 0
0.233531 0.0122831 0
0.153899 0.00623257 0
0.074124 0.00501545 0
0.233531 0.0122831 0
0.093056 0.00490284 0
0.226934 0.0112198 0
0.233531 0.0122831 0
0.153899 0.00623257 0
0.226934 0.0112198 0
0.150224 0.00567123 0
0.093056 0.00490284 0
0.226934 0.0112198 0
0.109441 0.00577137 0
0.220662 0.0102213 0
0.226934 0.0112198 0
0.150224 0.00567123 0
0.220662 0.0102213 0
0.147006 0.00529171 0
0.109441 0.00577137 0
0.220662 0.0102213 0
0.123397 0.00636529 0
0.214629 0.00997662 0
0.220662 0.0102213 0
0.147006 0.00529171 0
0.214629 0.00997662 0
0.144098 0.00513867 0
0.123397 0.00636529 0
0.214629 0.00997662 0
0.135553 0.00751334 0
0.208615 0.00953146 0
0.214629 0.00997662 0
0.144098 0.00513867 0
0.208615 0.00953146 0
0.14146 0.00494847 0
0.135553 0.00751334 0
0.208615 0.00953146 0
0.146439 0.00751913 0
0.202453 0.00946323 0
0.208615 0.00953146 0
0.14146 0.00494847 0
0.202453 0.00946323 0
0.139055 0.00477559 0
0.146439 0.00751913 0
0.202453 0.00946323 0
0.156117 0.00855131 0
0.196127 0.00901176 0
0.202453 0.00946323 0
0.139055 0.00477559 0
0.196127 0.00901176 0
0.136853 0.00454657 0
0.156117 0.00855131 0
0.196127 0.00901176 0
0.164253 0.00898355 0
0.189809 0.00941992 0
0.196127 0.00901176 0
0.136853 0.00454657 0
0.189809 0.00941992 0
0.134757 0.00475314 0
0.164253 0.00898355 0
0.189809 0.00941992 0
0.17094 0.010389 0
0.183394 0.00876222 0
0.189809 0.00941992 0
0.134757 0.00475314 0
0.183394 0.00876222 0
0.132839 0.00409066 0
0.17094 0.010389 0
0.183394 0.00876222 0
0.176769 0.00778279 0
0.17694 0.00755868 0
0.183394 0.00876222 0
0.132839 0.00409066 0
0.17694 0.00755868 0
0.131303 0.00333629 0
0.158312 -0.00659546 0
0.240515 -0.0132606 0
0.154174 -0.00623846 0
0.233507 -0.0122796 0
0.240515 -0.0132606 0
0.0520277 -0.00336835 0
0.233507 -0.0122796 0
0.0740842 -0.00501471 0
0.154174 -0.00623846 0
0.233507 -0.0122796 0
0.150495 -0.00567388 0
0.226932 -0.0112141 0
0.233507 -0.0122796 0
0.0740842 -0.00501471 0
0.226932 -0.0112141 0
0.0929862 -0.00490007 0
0.150495 -0.00567388 0
0.226932 -0.0112141 0
0.147272 -0.0052906 0
0.220685 -0.0102095 0
0.226932 -0.0112141 0
0.0929862 -0.00490007 0
0.220685 -0.0102095 0
0.109341 -0.00575915 0
0.147272 -0.0052906 0
0.220685 -0.0102095 0
0.14436 -0.00513357 0
0.214682 -0.00995451 0
0.220685 -0.0102095 0
0.109341 -0.00575915 0
0.214682 -0.00995451 0
0.123263 -0.00634067 0
0.14436 -0.00513357 0
0.214682 -0.00995451 0
0.141719 -0.00494047 0
0.208706 -0.00950402 0
0.214682 -0.00995451 0
0.123263 -0.00634067 0
0.208706 -0.00950402 0
0.135391 -0.00746969 0
0.141719 -0.00494047 0
0.208706 -0.00950402 0
0.13931 -0.00476667 0
0.202586 -0.00943333 0
0.208706 -0.00950402 0
0.135391 -0.00746969 0
0.202586 -0.00943333 0
0.146255 -0.00747525 0
0.13931 -0.00476667 0
0.202586 -0.00943333 0
0.137103 -0.00453887 0
0.196303 -0.00898724 0
0.202586 -0.00943333 0
0.146255 -0.00747525 0
0.196303 -0.00898724 0
0.155911 -0.00851013 0
0.137103 -0.00453887 0
0.196303 -0.00898724 0
0.134998 -0.00474439 0
0.190026 -0.00939692 0
0.196303 -0.00898724 0
0.155911 -0.00851013 0
0.190026 -0.00939692 0
0.164029 -0.00894554 0
0.134998 -0.00474439 0
0.190026 -0.00939692 0
0.133068 -0.00408795 0
0.183648 -0.00874656 0
0.190026 -0.00939692 0
0.164029 -0.00894554 0
0.183648 -0.00874656 0
0.170707 -0.0103479 0
0.133068 -0.00408795 0
0.183648 -0.00874656 0
0.13152 -0.00333458 0
0.177229 -0.00754626 0
0.183648 -0.00874656 0
0.170707 -0.0103479 0
0.177229 -0.00754626 0
0.176533 -0.00775191 0
0.00668834 -0.021207 0
0.00345568 -0.0118316 0
0.015388 -0.0228633 0
0.0107876 -0.0133892 0
0.00345568 -0.0118316 0
0.0520379 0.0033766 0
0.0107876 -0.0133892 0
0.074124 0.00501545 0
0.015388 -0.0228633 0
0.0107876 -0.0133892 0
0.0207452 -0.0158995 0
0.0197011 -0.00891395 0
0.0107876 -0.0133892 0
0.074124 0.00501545 0
0.0197011 -0.00891395 0
0.093056 0.00490284 0
0.0207452 -0.0158995 0
0.0197011 -0.00891395 0
0.0277411 -0.0131884 0
0.0250735 -0.00599345 0
0.0197011 -0.00891395 0
0.093056 0.00490284 0
0.0250735 -0.00599345 0
0.109441 0.00577137 0
0.0277411 -0.0131884 0
0.0250735 -0.00599345 0
0.0358093 -0.0114441 0
0.0297298 -0.00413176 0
0.0250735 -0.00599345 0
0.109441 0.00577137 0
0.0297298 -0.00413176 0
0.123397 0.00636529 0
0.0358093 -0.0114441 0
0.0297298 -0.00413176 0
0.039773 -0.00134591 0
0.0330146 -0.000706585 0
0.0297298 -0.00413176 0
0.123397 0.00636529 0
0.0330146 -0.000706585 0
0.135553 0.00751334 0
0.039773 -0.00134591 0
0.0330146 -0.000706585 0
0.0346278 0.0104688 0
0.0326211 0.00272016 0
0.0330146 -0.000706585 0
0.135553 0.00751334 0
0.0326211 0.00272016 0
0.146439 0.00751913 0
0.0346278 0.0104688 0
0.0326211 0.00272016 0
0.0255187 0.0068442 0
0.0315663 0.00236539 0
0.0326211 0.00272016 0
0.146439 0.00751913 0
0.0315663 0.00236539 0
0.156117 0.00855131 0
0.0255187 0.0068442 0
0.0315663 0.00236539 0
0.0173735 0.0010087 0
0.0354033 0.000230661 0
0.0315663 0.00236539 0
0.156117 0.00855131 0
0.0354033 0.000230661 0
0.164253 0.00898355 0
0.0173735 0.0010087 0
0.0354033 0.000230661 0
0.011149 0.0101135 0
0.0385244 0.00695453 0
0.0354033 0.000230661 0
0.164253 0.00898355 0
0.0385244 0.00695453 0
0.17094 0.010389 0
0.011149 0.0101135 0
0.0385244 0.00695453 0
0.00814099 0.0225699 0
0.031019 0.0129366 0
0.0385244 0.00695453 0
0.17094 0.010389 0
0.031019 0.0129366 0
0.176769 0.00778279 0
0 0 0
-0.000354046 0.0145812 0
0 0 0
0.00118499 0.0138614 0
-0.000354046 0.0145812 0
-0.00156801 0.0284507 0
0.00118499 0.0138614 0
0.00273723 0.0289619 0
0 0 0
0.00118499 0.0138614 0
0 0 0
8.63729e-05 0.0126609 0
0.00118499 0.0138614 0
0.00273723 0.0289619 0
8.63729e-05 0.0126609 0
0.00658731 0.0210358 0
-0.00156801 0.0284507 0
-0.00243427 0.0266507 0
0.00273723 0.0289619 0
0.00394997 0.0259936 0
-0.00243427 0.0266507 0
-0.00174765 0.0249678 0
0.00394997 0.0259936 0
0.00665678 0.0218801 0
0.00273723 0.0289619 0
0.00394997 0.0259936 0
0.00658731 0.0210358 0
0.0152479 0.0227342 0
0.00394997 0.0259936 0
0.00665678 0.0218801 0
0.0152479 0.0227342 0
0.020604 0.0158378 0
-0.0201248 -0.0497396 0
-0.0426629 -0.0676024 0
-0.00951294 -0.0302104 0
-0.0304706 -0.0364526 0
-0.0426629 -0.0676024 0
-0.0672735 -0.0822021 0
-0.0304706 -0.0364526 0
-0.0616007 -0.0486443 0
-0.00951294 -0.0302104 0
-0.0304706 -0.0364526 0
0.00828572 -0.0226416 0
-0.00398581 -0.00484448 0
-0.0304706 -0.0364526 0
-0.0616007 -0.0486443 0
-0.00398581 -0.00484448 0
-0.0378802 -0.00494213 0
0.00828572 -0.0226416 0
-0.00398581 -0.00484448 0
0.030887 -0.0129315 0
0.0290193 0.00161253 0
-0.00398581 -0.00484448 0
-0.0378802 -0.00494213 0
0.0290193 0.00161253 0
0.0459688 0.00821673 0
0.030887 -0.0129315 0
0.0290193 0.00161253 0
0.176533 -0.00775191 0
0.180979 -0.00708881 0
0.0290193 0.00161253 0
0.0459688 0.00821673 0
0.180979 -0.00708881 0
0.182679 -0.00472371 0
-0.0672735 -0.0822021 0
-0.0803247 -0.0103165 0
-0.0616007 -0.0486443 0
-0.0758664 -0.01086 0
-0.0803247 -0.0103165 0
-0.0662569 0.0578054 0
-0.0758664 -0.01086 0
-0.0625257 0.0258885 0
-0.0616007 -0.0486443 0
-0.0758664 -0.01086 0
-0.0378802 -0.00494213 0
-0.0429593 -0.0311072 0
-0.0758664 -0.01086 0
-0.0625257 0.0258885 0
-0.0429593 -0.0311072 0
-0.0389803 0.0251674 0
-0.0662569 0.0578054 0
-0.0458976 0.0485103 0
-0.0625257 0.0258885 0
-0.0480852 0.0397232 0
-0.0458976 0.0485103 0
-0.0423003 0.040366 0
-0.0480852 0.0397232 0
-0.0329009 0.0271752 0
-0.0625257 0.0258885 0
-0.0480852 0.0397232 0
-0.0389803 0.0251674 0
-0.0423826 0.0279535 0
-0.0480852 0.0397232 0
-0.0329009 0.0271752 0
-0.0423826 0.0279535 0
-0.0226173 -0.00173684 0
-0.0423003 0.040366 0
-0.0373654 0.0271557 0
-0.0329009 0.0271752 0
-0.00161251 -0.00203675 0
-0.0373654 0.0271557 0
-0.011827 0.0122355 0
-0.00161251 -0.00203675 0
0.0135702 -0.00658233 0
-0.0329009 0.0271752 0
-0.00161251 -0.00203675 0
-0.0226173 -0.00173684 0
-0.0231416 -0.0087802 0
-0.00161251 -0.00203675 0
0.0135702 -0.00658233 0
-0.0231416 -0.0087802 0
-0.0295893 -0.0097247 0
0 0 0
0 0 0
-0.00304138 0.00667877 0
-0.0381769 0.0341583 0
0 0 0
0 0 0
-0.0381769 0.0341583 0
-0.0374698 -0.0338398 0
-0.00304138 0.00667877 0
-0.0381769 0.0341583 0
-0.0103585 0.0269303 0
0.0126277 0.0279814 0
-0.0381769 0.0341583 0
-0.0374698 -0.0338398 0
0.0126277 0.0279814 0
0.0144145 -0.0298153 0
-0.0103585 0.0269303 0
0.0126277 0.0279814 0
-0.0113668 0.0368727 0
0.00720856 -0.0293593 0
0.0126277 0.0279814 0
0.0144145 -0.0298153 0
0.00720856 -0.0293593 0
-0.00341742 0.0371107 0
-0.0113668 0.0368727 0
0.00720856 -0.0293593 0
-0.011827 0.0122355 0
-0.00639029 -0.0308802 0
0.00720856 -0.0293593 0
-0.00341742 0.0371107 0
-0.00639029 -0.0308802 0
-0.0205205 0.0666427 0
-0.011827 0.0122355 0
-0.00639029 -0.0308802 0
0.0135702 -0.00658233 0
-0.00997669 0.0085964 0
-0.00639029 -0.0308802 0
-0.0205205 0.0666427 0
-0.00997669 0.0085964 0
-0.020853 0.0557926 0
0.0135702 -0.00658233 0
-0.00997669 0.0085964 0
-0.0295893 -0.0097247 0
-0.0113057 0.0177658 0
-0.00997669 0.0085964 0
-0.020853 0.0557926 0
-0.0113057 0.0177658 0
0.00978012 0.0349056 0
0 0 0
0 0 0
-0.0374698 -0.0338398 0
-0.0182391 0.0103022 0
0 0 0
0 0 0
-0.0182391 0.0103022 0
-0.0231044 -0.00373687 0
-0.0374698 -0.0338398 0
-0.0182391 0.0103022 0
0.0144145 -0.0298153 0
-0.0292352 0.0335928 0
-0.0182391 0.0103022 0
-0.0231044 -0.00373687 0
-0.0292352 0.0335928 0
-0.0440955 -0.00233275 0
0.0144145 -0.0298153 0
-0.0292352 0.0335928 0
-0.00341742 0.0371107 0
-0.0282826 0.046467 0
-0.0292352 0.0335928 0
-0.0440955 -0.00233275 0
-0.0282826 0.046467 0
-0.0267675 0.00124851 0
-0.00341742 0.0371107 0
-0.0282826 0.046467 0
-0.0205205 0.0666427 0
-0.00357758 0.0260791 0
-0.0282826 0.046467 0
-0.0267675 0.00124851 0
-0.00357758 0.0260791 0
0.0179591 -0.00513437 0
-0.0205205 0.0666427 0
-0.00357758 0.0260791 0
-0.020853 0.0557926 0
-0.0160387 0.0114177 0
-0.00357758 0.0260791 0
0.0179591 -0.00513437 0
-0.0160387 0.0114177 0
-0.0157182 -0.0158151 0
-0.020853 0.0557926 0
-0.0160387 0.0114177 0
0.00978012 0.0349056 0
0.0203884 0.0138932 0
-0.0160387 0.0114177 0
-0.0157182 -0.0158151 0
0.0203884 0.0138932 0
0.00560591 -0.00152478 0
0 0 0
0 0 0
-0.0231044 -0.00373687 0
-0.0169123 -0.00405361 0
0 0 0
0 0 0
-0.0169123 -0.00405361 0
-0.00402535 -0.01071 0
-0.0231044 -0.00373687 0
-0.0169123 -0.00405361 0
-0.0440955 -0.00233275 0
-0.0420836 -0.0157062 0
-0.0169123 -0.00405361 0
-0.00402535 -0.01071 0
-0.0420836 -0.0157062 0
-0.0284872 -0.0294333 0
-0.0440955 -0.00233275 0
-0.0420836 -0.0157062 0
-0.0267675 0.00124851 0
-0.0303197 -0.0178368 0
-0.0420836 -0.0157062 0
-0.0284872 -0.0294333 0
-0.0303197 -0.0178368 0
-0.0309625 -0.0423597 0
-0.0267675 0.00124851 0
-0.0303197 -0.0178368 0
0.0179591 -0.00513437 0
0.0101871 0.00129902 0
-0.0303197 -0.0178368 0
-0.0309625 -0.0423597 0
0.0101871 0.00129902 0
-0.010802 -0.0363398 0
0.0179591 -0.00513437 0
0.0101871 0.00129902 0
-0.0157182 -0.0158151 0
-0.00396547 0.00730667 0
0.0101871 0.00129902 0
-0.010802 -0.0363398 0
-0.00396547 0.00730667 0
-0.000705753 -0.0217088 0
-0.0157182 -0.0158151 0
-0.00396547 0.00730667 0
0.00560591 -0.00152478 0
0.00156045 -0.016674 0
-0.00396547 0.00730667 0
-0.000705753 -0.0217088 0
0.00156045 -0.016674 0
0.00278358 -0.00318176 0
0 0 0
0 0 0
-0.00402535 -0.01071 0
0.0026625 0.00292981 0
0 0 0
0 0 0
0.0026625 0.00292981 0
0 0 0
-0.00402535 -0.01071 0
0.0026625 0.00292981 0
-0.0284872 -0.0294333 0
-0.0107014 -0.00673917 0
0.0026625 0.00292981 0
0 0 0
-0.0107014 -0.00673917 0
0 0 0
-0.0284872 -0.0294333 0
-0.0107014 -0.00673917 0
-0.0309625 -0.0423597 0
-0.0132717 -0.0352642 0
-0.0107014 -0.00673917 0
0 0 0
-0.0132717 -0.0352642 0
0 0 0
-0.0309625 -0.0423597 0
-0.0132717 -0.0352642 0
-0.010802 -0.0363398 0
-0.00999241 -0.0626998 0
-0.0132717 -0.0352642 0
0 0 0
-0.00999241 -0.0626998 0
0 0 0
-0.010802 -0.0363398 0
-0.00999241 -0.0626998 0
-0.000705753 -0.0217088 0
-0.00206895 -0.0769259 0
-0.00999241 -0.0626998 0
0 0 0
-0.00206895 -0.0769259 0
0 0 0
-0.000705753 -0.0217088 0
-0.00206895 -0.0769259 0
0.00278358 -0.00318176 0
-0.00534465 -0.0855907 0
-0.00206895 -0.0769259 0
0 0 0
-0.00534465 -0.0855907 0
0 0 0
0.176769 0.00778279 0
0.17694 0.00755868 0
0.181216 0.00711795 0
0.171527 0.00570721 0
0.17694 0.00755868 0
0.131303 0.00333629 0
0.171527 0.00570721 0
0.130134 0.00259533 0
0.181216 0.00711795 0
0.171527 0.00570721 0
0.182906 0.00473958 0
0.168276 0.00372082 0
0.171527 0.00570721 0
0.130134 0.00259533 0
0.168276 0.00372082 0
0.129006 0.00182793 0
0.166155 0.00681094 0
0.107231 0.00597498 0
0.162086 0.00666033 0
0.10982 0.00578156 0
0.107231 0.00597498 0
0.227967 6.38844e-06 0
0.10982 0.00578156 0
0.21537 6.02314e-06 0
0.162086 0.00666033 0
0.10982 0.00578156 0
0.158033 0.00658895 0
0.111971 0.00528551 0
0.10982 0.00578156 0
0.21537 6.02314e-06 0
0.111971 0.00528551 0
0.203872 5.778e-06 0
0.158033 0.00658895 0
0.111971 0.00528551 0
0.153899 0.00623257 0
0.113945 0.00503561 0
0.111971 0.00528551 0
0.203872 5.778e-06 0
0.113945 0.00503561 0
0.19328 5.595e-06 0
0.153899 0.00623257 0
0.113945 0.00503561 0
0.150224 0.00567123 0
0.11566 0.0045585 0
0.113945 0.00503561 0
0.19328 5.595e-06 0
0.11566 0.0045585 0
0.183584 5.91902e-06 0
0.150224 0.00567123 0
0.11566 0.0045585 0
0.147006 0.00529171 0
0.11709 0.00432502 0
0.11566 0.0045585 0
0.183584 5.91902e-06 0
0.11709 0.00432502 0
0.174802 6.26986e-06 0
0.147006 0.00529171 0
0.11709 0.00432502 0
0.144098 0.00513867 0
0.118201 0.00391819 0
0.11709 0.00432502 0
0.174802 6.26986e-06 0
0.118201 0.00391819 0
0.16693 6.50931e-06 0
0.144098 0.00513867 0
0.118201 0.00391819 0
0.14146 0.00494847 0
0.118951 0.00386141 0
0.118201 0.00391819 0
0.16693 6.50931e-06 0
0.118951 0.00386141 0
0.159877 7.02346e-06 0
0.14146 0.00494847 0
0.118951 0.00386141 0
0.139055 0.00477559 0
0.119354 0.00344326 0
0.118951 0.00386141 0
0.159877 7.02346e-06 0
0.119354 0.00344326 0
0.153506 6.69589e-06 0
0.139055 0.00477559 0
0.119354 0.00344326 0
0.136853 0.00454657 0
0.119409 0.00345869 0
0.119354 0.00344326 0
0.153506 6.69589e-06 0
0.119409 0.00345869 0
0.1478 7.58866e-06 0
0.136853 0.00454657 0
0.119409 0.00345869 0
0.134757 0.00475314 0
0.119181 0.00309439 0
0.119409 0.00345869 0
0.1478 7.58866e-06 0
0.119181 0.00309439 0
0.142768 6.87234e-06 0
0.134757 0.00475314 0
0.119181 0.00309439 0
0.132839 0.00409066 0
0.118823 0.00309215 0
0.119181 0.00309439 0
0.142768 6.87234e-06 0
0.118823 0.00309215 0
0.138259 5.38087e-06 0
0.132839 0.00409066 0
0.118823 0.00309215 0
0.131303 0.00333629 0
0.118508 0.00236008 0