# vtk DataFile Version 3.0
#This file was generated by the deal.II library on 2026/3/26 at 11:15:14
ASCII
DATASET UNSTRUCTURED_GRID

POINTS 3648 double
0 0 0
0.214286 0 0
0 0.25 0
0.214286 0.25 0
0 0.25 0
0.214286 0.25 0
0 0.5 0
0.214286 0.5 0
0.214286 0 0
0.428571 0 0
0.214286 0.25 0
0.428571 0.25 0
0.214286 0.25 0
0.428571 0.25 0
0.214286 0.5 0
0.428571 0.5 0
0.428571 0 0
0.642857 0 0
0.428571 0.25 0
0.642857 0.25 0
0.428571 0.25 0
0.642857 0.25 0
0.428571 0.5 0
0.642857 0.5 0
0.428571 0.5 0
0.642857 0.5 0
0.428571 0.75 0
0.642857 0.75 0
0.642857 0 0
0.857143 0 0
0.642857 0.25 0
0.857143 0.25 0
0.642857 0.25 0
0.857143 0.25 0
0.642857 0.5 0
0.857143 0.5 0
0.642857 0.5 0
0.857143 0.5 0
0.642857 0.75 0
0.857143 0.75 0
0.857143 0 0
1.07143 0 0
0.857143 0.25 0
1.07143 0.25 0
0.857143 0.25 0
1.07143 0.25 0
0.857143 0.5 0
1.07143 0.5 0
0.857143 0.5 0
1.07143 0.5 0
0.857143 0.75 0
1.07143 0.75 0
1.07143 0 0
1.28571 0 0
1.07143 0.25 0
1.28571 0.25 0
1.07143 0.25 0
1.28571 0.25 0
1.07143 0.5 0
1.28571 0.5 0
1.07143 0.5 0
1.28571 0.5 0
1.07143 0.75 0
1.28571 0.75 0
1.28571 0 0
1.5 0 0
1.28571 0.25 0
1.5 0.25 0
1.28571 0.25 0
1.5 0.25 0
1.28571 0.5 0
1.5 0.5 0
1.5 0 0
1.71429 0 0
1.5 0.25 0
1.71429 0.25 0
1.5 0.25 0
1.71429 0.25 0
1.5 0.5 0
1.71429 0.5 0
1.71429 0 0
1.92857 0 0
1.71429 0.25 0
1.92857 0.25 0
1.71429 0.25 0
1.92857 0.25 0
1.71429 0.5 0
1.92857 0.5 0
1.92857 0 0
2.14286 0 0
1.92857 0.25 0
2.14286 0.25 0
1.92857 0.25 0
2.14286 0.25 0
1.92857 0.5 0
2.14286 0.5 0
0 3 0
0 2.75 0
0.214286 3 0
0.214286 2.75 0
0.214286 3 0
0.214286 2.75 0
0.428571 3 0
0.428571 2.75 0
0.428571 3 0
0.428571 2.75 0
0.642857 3 0
0.642857 2.75 0
0.642857 3 0
0.642857 2.75 0
0.857143 3 0
0.857143 2.75 0
0.857143 3 0
0.857143 2.75 0
1.07143 3 0
1.07143 2.75 0
1.07143 3 0
1.07143 2.75 0
1.28571 3 0
1.28571 2.75 0
1.28571 3 0
1.28571 2.75 0
1.5 3 0
1.5 2.75 0
1.5 3 0
1.5 2.75 0
1.71429 3 0
1.71429 2.75 0
1.71429 3 0
1.71429 2.75 0
1.92857 3 0
1.92857 2.75 0
1.92857 3 0
1.92857 2.75 0
2.14286 3 0
2.14286 2.75 0
0 2.75 0
0 2.5 0
0.214286 2.75 0
0.214286 2.5 0
0.214286 2.75 0
0.214286 2.5 0
0.428571 2.75 0
0.428571 2.5 0
0.428571 2.75 0
0.428571 2.5 0
0.642857 2.75 0
0.642857 2.5 0
0.642857 2.75 0
0.642857 2.5 0
0.857143 2.75 0
0.857143 2.5 0
0.857143 2.75 0
0.857143 2.5 0
1.07143 2.75 0
1.07143 2.5 0
1.07143 2.75 0
1.07143 2.5 0
1.28571 2.75 0
1.28571 2.5 0
1.28571 2.75 0
1.28571 2.5 0
1.5 2.75 0
1.5 2.5 0
1.5 2.75 0
1.5 2.5 0
1.71429 2.75 0
1.71429 2.5 0
1.71429 2.75 0
1.71429 2.5 0
1.92857 2.75 0
1.92857 2.5 0
1.92857 2.75 0
1.92857 2.5 0
2.14286 2.75 0
2.14286 2.5 0
0.428571 2.5 0
0.428571 2.25 0
0.642857 2.5 0
0.642857 2.25 0
0.642857 2.5 0
0.642857 2.25 0
0.857143 2.5 0
0.857143 2.25 0
0.857143 2.5 0
0.857143 2.25 0
1.07143 2.5 0
1.07143 2.25 0
1.07143 2.5 0
1.07143 2.25 0
1.28571 2.5 0
1.28571 2.25 0
0.214286 0.75 0
0.321429 0.75 0
0.214286 0.875 0
0.321429 0.875 0
0.321429 0.75 0
0.428571 0.75 0
0.321429 0.875 0
0.428571 0.875 0
0.214286 0.875 0
0.321429 0.875 0
0.214286 1 0
0.321429 1 0
0.321429 0.875 0
0.428571 0.875 0
0.321429 1 0
0.428571 1 0
0.428571 0.75 0
0.535714 0.75 0
0.428571 0.875 0
0.535714 0.875 0
0.535714 0.75 0
0.642857 0.75 0
0.535714 0.875 0
0.642857 0.875 0
0.428571 0.875 0
0.535714 0.875 0
0.428571 1 0
0.535714 1 0
0.535714 0.875 0
0.642857 0.875 0
0.535714 1 0
0.642857 1 0
0.642857 0.75 0
0.75 0.75 0
0.642857 0.875 0
0.75 0.875 0
0.75 0.75 0
0.857143 0.75 0
0.75 0.875 0
0.857143 0.875 0
0.642857 0.875 0
0.75 0.875 0
0.642857 1 0
0.75 1 0
0.75 0.875 0
0.857143 0.875 0
0.75 1 0
0.857143 1 0
0.857143 0.75 0
0.964286 0.75 0
0.857143 0.875 0
0.964286 0.875 0
0.964286 0.75 0
1.07143 0.75 0
0.964286 0.875 0
1.07143 0.875 0
0.857143 0.875 0
0.964286 0.875 0
0.857143 1 0
0.964286 1 0
0.964286 0.875 0
1.07143 0.875 0
0.964286 1 0
1.07143 1 0
1.07143 0.75 0
1.17857 0.75 0
1.07143 0.875 0
1.17857 0.875 0
1.17857 0.75 0
1.28571 0.75 0
1.17857 0.875 0
1.28571 0.875 0
1.07143 0.875 0
1.17857 0.875 0
1.07143 1 0
1.17857 1 0
1.17857 0.875 0
1.28571 0.875 0
1.17857 1 0
1.28571 1 0
0.214286 2 0
0.214286 1.875 0
0.321429 2 0
0.321429 1.875 0
0.214286 1.875 0
0.214286 1.75 0
0.321429 1.875 0
0.321429 1.75 0
0.321429 2 0
0.321429 1.875 0
0.428571 2 0
0.428571 1.875 0
0.321429 1.875 0
0.321429 1.75 0
0.428571 1.875 0
0.428571 1.75 0
0.428571 2 0
0.428571 1.875 0
0.535714 2 0
0.535714 1.875 0
0.428571 1.875 0
0.428571 1.75 0
0.535714 1.875 0
0.535714 1.75 0
0.535714 2 0
0.535714 1.875 0
0.642857 2 0
0.642857 1.875 0
0.535714 1.875 0
0.535714 1.75 0
0.642857 1.875 0
0.642857 1.75 0
0.642857 2 0
0.642857 1.875 0
0.75 2 0
0.75 1.875 0
0.642857 1.875 0
0.642857 1.75 0
0.75 1.875 0
0.75 1.75 0
0.75 2 0
0.75 1.875 0
0.857143 2 0
0.857143 1.875 0
0.75 1.875 0
0.75 1.75 0
0.857143 1.875 0
0.857143 1.75 0
0.857143 2 0
0.857143 1.875 0
0.964286 2 0
0.964286 1.875 0
0.857143 1.875 0
0.857143 1.75 0
0.964286 1.875 0
0.964286 1.75 0
0.964286 2 0
0.964286 1.875 0
1.07143 2 0
1.07143 1.875 0
0.964286 1.875 0
0.964286 1.75 0
1.07143 1.875 0
1.07143 1.75 0
1.07143 2 0
1.07143 1.875 0
1.17857 2 0
1.17857 1.875 0
1.07143 1.875 0
1.07143 1.75 0
1.17857 1.875 0
1.17857 1.75 0
1.17857 2 0
1.17857 1.875 0
1.28571 2 0
1.28571 1.875 0
1.17857 1.875 0
1.17857 1.75 0
1.28571 1.875 0
1.28571 1.75 0
0.214286 1.25 0
0.214286 1.125 0
0.321429 1.25 0
0.321429 1.125 0
0.214286 1.125 0
0.214286 1 0
0.321429 1.125 0
0.321429 1 0
0.321429 1.25 0
0.321429 1.125 0
0.428571 1.25 0
0.428571 1.125 0
0.321429 1.125 0
0.321429 1 0
0.428571 1.125 0
0.428571 1 0
0.428571 1.25 0
0.428571 1.125 0
0.535714 1.25 0
0.535714 1.125 0
0.428571 1.125 0
0.428571 1 0
0.535714 1.125 0
0.535714 1 0
0.535714 1.25 0
0.535714 1.125 0
0.642857 1.25 0
0.642857 1.125 0
0.535714 1.125 0
0.535714 1 0
0.642857 1.125 0
0.642857 1 0
0.642857 1.25 0
0.642857 1.125 0
0.75 1.25 0
0.75 1.125 0
0.642857 1.125 0
0.642857 1 0
0.75 1.125 0
0.75 1 0
0.75 1.25 0
0.75 1.125 0
0.857143 1.25 0
0.857143 1.125 0
0.75 1.125 0
0.75 1 0
0.857143 1.125 0
0.857143 1 0
0.857143 1.25 0
0.857143 1.125 0
0.964286 1.25 0
0.964286 1.125 0
0.857143 1.125 0
0.857143 1 0
0.964286 1.125 0
0.964286 1 0
0.964286 1.25 0
0.964286 1.125 0
1.07143 1.25 0
1.07143 1.125 0
0.964286 1.125 0
0.964286 1 0
1.07143 1.125 0
1.07143 1 0
1.07143 1.25 0
1.07143 1.125 0
1.17857 1.25 0
1.17857 1.125 0
1.07143 1.125 0
1.07143 1 0
1.17857 1.125 0
1.17857 1 0
1.17857 1.25 0
1.17857 1.125 0
1.28571 1.25 0
1.28571 1.125 0
1.17857 1.125 0
1.17857 1 0
1.28571 1.125 0
1.28571 1 0
0.214286 2.25 0
0.214286 2.125 0
0.321429 2.25 0
0.321429 2.125 0
0.214286 2.125 0
0.214286 2 0
0.321429 2.125 0
0.321429 2 0
0.321429 2.25 0
0.321429 2.125 0
0.428571 2.25 0
0.428571 2.125 0
0.321429 2.125 0
0.321429 2 0
0.428571 2.125 0
0.428571 2 0
0.428571 2.25 0
0.428571 2.125 0
0.535714 2.25 0
0.535714 2.125 0
0.428571 2.125 0
0.428571 2 0
0.535714 2.125 0
0.535714 2 0
0.535714 2.25 0
0.535714 2.125 0
0.642857 2.25 0
0.642857 2.125 0
0.535714 2.125 0
0.535714 2 0
0.642857 2.125 0
0.642857 2 0
0.642857 2.25 0
0.642857 2.125 0
0.75 2.25 0
0.75 2.125 0
0.642857 2.125 0
0.642857 2 0
0.75 2.125 0
0.75 2 0
0.75 2.25 0
0.75 2.125 0
0.857143 2.25 0
0.857143 2.125 0
0.75 2.125 0
0.75 2 0
0.857143 2.125 0
0.857143 2 0
0.857143 2.25 0
0.857143 2.125 0
0.964286 2.25 0
0.964286 2.125 0
0.857143 2.125 0
0.857143 2 0
0.964286 2.125 0
0.964286 2 0
0.964286 2.25 0
0.964286 2.125 0
1.07143 2.25 0
1.07143 2.125 0
0.964286 2.125 0
0.964286 2 0
1.07143 2.125 0
1.07143 2 0
1.07143 2.25 0
1.07143 2.125 0
1.17857 2.25 0
1.17857 2.125 0
1.07143 2.125 0
1.07143 2 0
1.17857 2.125 0
1.17857 2 0
1.17857 2.25 0
1.17857 2.125 0
1.28571 2.25 0
1.28571 2.125 0
1.17857 2.125 0
1.17857 2 0
1.28571 2.125 0
1.28571 2 0
0 0.5 0
0.107143 0.5 0
0 0.625 0
0.107143 0.625 0
0.107143 0.5 0
0.214286 0.5 0
0.107143 0.625 0
0.214286 0.625 0
0 0.625 0
0.107143 0.625 0
0 0.75 0
0.107143 0.75 0
0.107143 0.625 0
0.214286 0.625 0
0.107143 0.75 0
0.214286 0.75 0
0.214286 0.5 0
0.321429 0.5 0
0.214286 0.625 0
0.321429 0.625 0
0.321429 0.5 0
0.428571 0.5 0
0.321429 0.625 0
0.428571 0.625 0
0.214286 0.625 0
0.321429 0.625 0
0.214286 0.75 0
0.321429 0.75 0
0.321429 0.625 0
0.428571 0.625 0
0.321429 0.75 0
0.428571 0.75 0
1.28571 0.5 0
1.39286 0.5 0
1.28571 0.625 0
1.39286 0.625 0
1.39286 0.5 0
1.5 0.5 0
1.39286 0.625 0
1.5 0.625 0
1.28571 0.625 0
1.39286 0.625 0
1.28571 0.75 0
1.39286 0.75 0
1.39286 0.625 0
1.5 0.625 0
1.39286 0.75 0
1.5 0.75 0
1.28571 0.75 0
1.39286 0.75 0
1.28571 0.875 0
1.39286 0.875 0
1.39286 0.75 0
1.5 0.75 0
1.39286 0.875 0
1.5 0.875 0
1.28571 0.875 0
1.39286 0.875 0
1.28571 1 0
1.39286 1 0
1.39286 0.875 0
1.5 0.875 0
1.39286 1 0
1.5 1 0
1.5 0.5 0
1.60714 0.5 0
1.5 0.625 0
1.60714 0.625 0
1.60714 0.5 0
1.71429 0.5 0
1.60714 0.625 0
1.71429 0.625 0
1.5 0.625 0
1.60714 0.625 0
1.5 0.75 0
1.60714 0.75 0
1.60714 0.625 0
1.71429 0.625 0
1.60714 0.75 0
1.71429 0.75 0
1.71429 0.5 0
1.82143 0.5 0
1.71429 0.625 0
1.82143 0.625 0
1.82143 0.5 0
1.92857 0.5 0
1.82143 0.625 0
1.92857 0.625 0
1.71429 0.625 0
1.82143 0.625 0
1.71429 0.75 0
1.82143 0.75 0
1.82143 0.625 0
1.92857 0.625 0
1.82143 0.75 0
1.92857 0.75 0
1.92857 0.5 0
2.03571 0.5 0
1.92857 0.625 0
2.03571 0.625 0
2.03571 0.5 0
2.14286 0.5 0
2.03571 0.625 0
2.14286 0.625 0
1.92857 0.625 0
2.03571 0.625 0
1.92857 0.75 0
2.03571 0.75 0
2.03571 0.625 0
2.14286 0.625 0
2.03571 0.75 0
2.14286 0.75 0
2.14286 0 0
2.25 0 0
2.14286 0.125 0
2.25 0.125 0
2.25 0 0
2.35714 0 0
2.25 0.125 0
2.35714 0.125 0
2.14286 0.125 0
2.25 0.125 0
2.14286 0.25 0
2.25 0.25 0
2.25 0.125 0
2.35714 0.125 0
2.25 0.25 0
2.35714 0.25 0
2.14286 0.25 0
2.25 0.25 0
2.14286 0.375 0
2.25 0.375 0
2.25 0.25 0
2.35714 0.25 0
2.25 0.375 0
2.35714 0.375 0
2.14286 0.375 0
2.25 0.375 0
2.14286 0.5 0
2.25 0.5 0
2.25 0.375 0
2.35714 0.375 0
2.25 0.5 0
2.35714 0.5 0
2.14286 0.5 0
2.25 0.5 0
2.14286 0.625 0
2.25 0.625 0
2.25 0.5 0
2.35714 0.5 0
2.25 0.625 0
2.35714 0.625 0
2.14286 0.625 0
2.25 0.625 0
2.14286 0.75 0
2.25 0.75 0
2.25 0.625 0
2.35714 0.625 0
2.25 0.75 0
2.35714 0.75 0
2.35714 0 0
2.46429 0 0
[...]
POINT_DATA 3648
VECTORS velocity double
0 0 0
0 0 0
0 0 0
-0.0112874 0.0126982 0
0 0 0
-0.0112874 0.0126982 0
0 0 0
-0.00133176 0.0275765 0
0 0 0
0 0 0
-0.0112874 0.0126982 0
-0.0333204 0.0127846 0
-0.0112874 0.0126982 0
-0.0333204 0.0127846 0
-0.00133176 0.0275765 0
-0.00146406 0.0241497 0
0 0 0
0 0 0
-0.0333204 0.0127846 0
-0.050853 0.00798669 0
-0.0333204 0.0127846 0
-0.050853 0.00798669 0
-0.00146406 0.0241497 0
-0.00223457 0.01801 0
-0.00146406 0.0241497 0
-0.00223457 0.01801 0
0.0201047 0.0153452 0
0.0346191 0.0113289 0
0 0 0
0 0 0
-0.050853 0.00798669 0
-0.0574025 -6.09699e-05 0
-0.050853 0.00798669 0
-0.0574025 -6.09699e-05 0
-0.00223457 0.01801 0
0.003638 -0.0102463 0
-0.00223457 0.01801 0
0.003638 -0.0102463 0
0.0346191 0.0113289 0
0.0337579 -0.00924493 0
0 0 0
0 0 0
-0.0574025 -6.09699e-05 0
-0.0479433 -0.0107136 0
-0.0574025 -6.09699e-05 0
-0.0479433 -0.0107136 0
0.003638 -0.0102463 0
0.00696784 -0.015413 0
0.003638 -0.0102463 0
0.00696784 -0.015413 0
0.0337579 -0.00924493 0
0.0181092 -0.00111618 0
0 0 0
0 0 0
-0.0479433 -0.0107136 0
-0.00868978 -0.0372242 0
-0.0479433 -0.0107136 0
-0.00868978 -0.0372242 0
0.00696784 -0.015413 0
-0.0186061 -0.0485775 0
0.00696784 -0.015413 0
-0.0186061 -0.0485775 0
0.0181092 -0.00111618 0
0.00821768 -0.0219021 0
0 0 0
0 0 0
-0.00868978 -0.0372242 0
0.0726312 -0.0589928 0
-0.00868978 -0.0372242 0
0.0726312 -0.0589928 0
-0.0186061 -0.0485775 0
-0.068134 -0.0830104 0
0 0 0
0 0 0
0.0726312 -0.0589928 0
0.0834981 0.046813 0
0.0726312 -0.0589928 0
0.0834981 0.046813 0
-0.068134 -0.0830104 0
-0.0682164 0.0565639 0
0 0 0
0 0 0
0.0834981 0.046813 0
0.0290687 0.0163471 0
0.0834981 0.046813 0
0.0290687 0.0163471 0
-0.0682164 0.0565639 0
-0.042971 0.0410894 0
0 0 0
0 0 0
0.0290687 0.0163471 0
-0.00934923 0.027334 0
0.0290687 0.0163471 0
-0.00934923 0.027334 0
-0.042971 0.0410894 0
-0.012448 0.0115103 0
0 0 0
0 0 0
0 0 0
-0.0116067 -0.0130616 0
0 0 0
-0.0116067 -0.0130616 0
0 0 0
-0.0345875 -0.0135216 0
0 0 0
-0.0345875 -0.0135216 0
0 0 0
-0.052799 -0.0081208 0
0 0 0
-0.052799 -0.0081208 0
0 0 0
-0.0590093 0.00052926 0
0 0 0
-0.0590093 0.00052926 0
0 0 0
-0.048602 0.0113016 0
0 0 0
-0.048602 0.0113016 0
0 0 0
-0.00708812 0.0394155 0
0 0 0
-0.00708812 0.0394155 0
0 0 0
0.0734106 0.0555682 0
0 0 0
0.0734106 0.0555682 0
0 0 0
0.0821387 -0.0457429 0
0 0 0
0.0821387 -0.0457429 0
0 0 0
0.0281239 -0.017069 0
0 0 0
0.0281239 -0.017069 0
0 0 0
-0.0104902 -0.026738 0
0 0 0
0 0 0
-0.0116067 -0.0130616 0
-0.00166031 -0.0286808 0
-0.0116067 -0.0130616 0
-0.00166031 -0.0286808 0
-0.0345875 -0.0135216 0
-0.00187022 -0.0252997 0
-0.0345875 -0.0135216 0
-0.00187022 -0.0252997 0
-0.052799 -0.0081208 0
-0.0027984 -0.0187014 0
-0.052799 -0.0081208 0
-0.0027984 -0.0187014 0
-0.0590093 0.00052926 0
0.00324807 0.0120125 0
-0.0590093 0.00052926 0
0.00324807 0.0120125 0
-0.048602 0.0113016 0
0.00715939 0.016392 0
-0.048602 0.0113016 0
0.00715939 0.016392 0
-0.00708812 0.0394155 0
-0.0207891 0.0503044 0
-0.00708812 0.0394155 0
-0.0207891 0.0503044 0
0.0734106 0.0555682 0
-0.0673615 0.0824193 0
0.0734106 0.0555682 0
-0.0673615 0.0824193 0
0.0821387 -0.0457429 0
-0.0661189 -0.0584919 0
0.0821387 -0.0457429 0
-0.0661189 -0.0584919 0
0.0281239 -0.017069 0
-0.0424087 -0.0405415 0
0.0281239 -0.017069 0
-0.0424087 -0.0405415 0
-0.0104902 -0.026738 0
-0.0119403 -0.0123084 0
-0.00187022 -0.0252997 0
0.0207971 -0.0161088 0
-0.0027984 -0.0187014 0
0.0361247 -0.0116077 0
-0.0027984 -0.0187014 0
0.0361247 -0.0116077 0
0.00324807 0.0120125 0
0.0350068 0.0105574 0
0.00324807 0.0120125 0
0.0350068 0.0105574 0
0.00715939 0.016392 0
0.0176478 0.00122232 0
0.00715939 0.016392 0
0.0176478 0.00122232 0
-0.0207891 0.0503044 0
0.00870352 0.0230096 0
0.00615172 0.0202535 0
0.0147188 0.0220786 0
0.00291814 0.0114406 0
0.00958876 0.0129568 0
0.0147188 0.0220786 0
0.0201047 0.0153452 0
0.00958876 0.0129568 0
0.0180482 0.00849345 0
0.00291814 0.0114406 0
0.00958876 0.0129568 0
0.0525913 -0.00354401 0
0.0749674 -0.00524942 0
0.00958876 0.0129568 0
0.0180482 0.00849345 0
0.0749674 -0.00524942 0
0.0941021 -0.00524472 0
0.0201047 0.0153452 0
0.0269655 0.0129082 0
0.0180482 0.00849345 0
0.0233234 0.00584896 0
0.0269655 0.0129082 0
0.0346191 0.0113289 0
0.0233234 0.00584896 0
0.0282092 0.00410222 0
0.0180482 0.00849345 0
0.0233234 0.00584896 0
0.0941021 -0.00524472 0
0.110634 -0.00607152 0
0.0233234 0.00584896 0
0.0282092 0.00410222 0
0.110634 -0.00607152 0
0.124694 -0.00664437 0
0.0346191 0.0113289 0
0.038385 0.00177347 0
0.0282092 0.00410222 0
0.0318552 0.00085457 0
0.038385 0.00177347 0
0.0337579 -0.00924493 0
0.0318552 0.00085457 0
0.0320195 -0.00249781 0
0.0282092 0.00410222 0
0.0318552 0.00085457 0
0.124694 -0.00664437 0
0.136926 -0.00766203 0
0.0318552 0.00085457 0
0.0320195 -0.00249781 0
0.136926 -0.00766203 0
0.147843 -0.00772986 0
0.0337579 -0.00924493 0
0.0254836 -0.00609373 0
0.0320195 -0.00249781 0
0.0315602 -0.00227691 0
0.0254836 -0.00609373 0
0.0181092 -0.00111618 0
0.0315602 -0.00227691 0
0.0354326 -0.000615797 0
0.0320195 -0.00249781 0
0.0315602 -0.00227691 0
0.147843 -0.00772986 0
0.157489 -0.00870331 0
0.0315602 -0.00227691 0
0.0354326 -0.000615797 0
0.157489 -0.00870331 0
0.165589 -0.00911652 0
0.0181092 -0.00111618 0
0.0121031 -0.0100572 0
0.0354326 -0.000615797 0
0.0384688 -0.00681935 0
0.0121031 -0.0100572 0
0.00821768 -0.0219021 0
0.0384688 -0.00681935 0
0.0317925 -0.0123944 0
0.0354326 -0.000615797 0
0.0384688 -0.00681935 0
0.165589 -0.00911652 0
0.172239 -0.0103716 0
0.0384688 -0.00681935 0
0.0317925 -0.0123944 0
0.172239 -0.0103716 0
0.177941 -0.00796689 0
0.0517774 0.00330399 0
0.241129 0.0131704 0
0.0736749 0.00488633 0
0.234284 0.0121885 0
0.241129 0.0131704 0
0.16061 0.00657421 0
0.234284 0.0121885 0
0.156428 0.00620926 0
0.0736749 0.00488633 0
0.234284 0.0121885 0
0.0924522 0.00478248 0
0.227875 0.0111248 0
0.234284 0.0121885 0
0.156428 0.00620926 0
0.227875 0.0111248 0
0.152696 0.0056481 0
0.0924522 0.00478248 0
0.227875 0.0111248 0
0.108711 0.00561505 0
0.221794 0.0101424 0
0.227875 0.0111248 0
0.152696 0.0056481 0
0.221794 0.0101424 0
0.149414 0.00527243 0
0.108711 0.00561505 0
0.221794 0.0101424 0
0.122579 0.00621475 0
0.215947 0.00989365 0
0.221794 0.0101424 0
0.149414 0.00527243 0
0.215947 0.00989365 0
0.146437 0.00511732 0
0.122579 0.00621475 0
0.215947 0.00989365 0
0.13467 0.00734873 0
0.210115 0.00947109 0
0.215947 0.00989365 0
0.146437 0.00511732 0
0.210115 0.00947109 0
0.143724 0.00493377 0
0.13467 0.00734873 0
0.210115 0.00947109 0
0.145508 0.00739328 0
0.204126 0.00941043 0
0.210115 0.00947109 0
0.143724 0.00493377 0
0.204126 0.00941043 0
0.141238 0.00476569 0
0.145508 0.00739328 0
0.204126 0.00941043 0
0.155155 0.00843207 0
0.19796 0.00900123 0
0.204126 0.00941043 0
0.141238 0.00476569 0
0.19796 0.00900123 0
0.138952 0.00456066 0
0.155155 0.00843207 0
0.19796 0.00900123 0
0.163281 0.00889086 0
0.191778 0.00938598 0
0.19796 0.00900123 0
0.138952 0.00456066 0
0.191778 0.00938598 0
0.136773 0.00474403 0
0.163281 0.00889086 0
0.191778 0.00938598 0
0.16997 0.0102639 0
0.185481 0.00874793 0
0.191778 0.00938598 0
0.136773 0.00474403 0
0.185481 0.00874793 0
0.13478 0.00409381 0
0.16997 0.0102639 0
0.185481 0.00874793 0
0.175821 0.00767496 0
0.179138 0.00751068 0
0.185481 0.00874793 0
0.13478 0.00409381 0
0.179138 0.00751068 0
0.133182 0.00331696 0
0.157638 -0.00674123 0
0.239485 -0.0135898 0
0.153235 -0.00637525 0
0.2324 -0.0126327 0
0.239485 -0.0135898 0
0.0525913 -0.00354401 0
0.2324 -0.0126327 0
0.0749674 -0.00524942 0
0.153235 -0.00637525 0
0.2324 -0.0126327 0
0.149317 -0.00581398 0
0.225707 -0.0115538 0
0.2324 -0.0126327 0
0.0749674 -0.00524942 0
0.225707 -0.0115538 0
0.0941021 -0.00524472 0
0.149317 -0.00581398 0
0.225707 -0.0115538 0
0.145886 -0.00540199 0
0.219317 -0.0105355 0
0.225707 -0.0115538 0
0.0941021 -0.00524472 0
0.219317 -0.0105355 0
0.110634 -0.00607152 0
0.145886 -0.00540199 0
0.219317 -0.0105355 0
0.142805 -0.00521732 0
0.213172 -0.0101911 0
0.219317 -0.0105355 0
0.110634 -0.00607152 0
0.213172 -0.0101911 0
0.124694 -0.00664437 0
0.142805 -0.00521732 0
0.213172 -0.0101911 0
0.140032 -0.00499355 0
0.207064 -0.00970518 0
0.213172 -0.0101911 0
0.124694 -0.00664437 0
0.207064 -0.00970518 0
0.136926 -0.00766203 0
0.140032 -0.00499355 0
0.207064 -0.00970518 0
0.137527 -0.00482088 0
0.20083 -0.00958085 0
0.207064 -0.00970518 0
0.136926 -0.00766203 0
0.20083 -0.00958085 0
0.147843 -0.00772986 0
0.137527 -0.00482088 0
0.20083 -0.00958085 0
0.13525 -0.00455555 0
0.19445 -0.00912203 0
0.20083 -0.00958085 0
0.147843 -0.00772986 0
0.19445 -0.00912203 0
0.157489 -0.00870331 0
0.13525 -0.00455555 0
0.19445 -0.00912203 0
0.133107 -0.00471516 0
0.188067 -0.00942835 0
0.19445 -0.00912203 0
0.157489 -0.00870331 0
0.188067 -0.00942835 0
0.165589 -0.00911652 0
0.133107 -0.00471516 0
0.188067 -0.00942835 0
0.131166 -0.00405761 0
0.181592 -0.00877365 0
0.188067 -0.00942835 0
0.165589 -0.00911652 0
0.181592 -0.00877365 0
0.172239 -0.0103716 0
0.131166 -0.00405761 0
0.181592 -0.00877365 0
0.129613 -0.00332969 0
0.175126 -0.00755812 0
0.181592 -0.00877365 0
0.172239 -0.0103716 0
0.175126 -0.00755812 0
0.177941 -0.00796689 0
0.00667209 -0.0213087 0
0.00368811 -0.0118887 0
0.0153619 -0.0227962 0
0.0110543 -0.0133443 0
0.00368811 -0.0118887 0
0.0517774 0.00330399 0
0.0110543 -0.0133443 0
0.0736749 0.00488633 0
0.0153619 -0.0227962 0
0.0110543 -0.0133443 0
0.0207971 -0.0161088 0
0.0199655 -0.0090117 0
0.0110543 -0.0133443 0
0.0736749 0.00488633 0
0.0199655 -0.0090117 0
0.0924522 0.00478248 0
0.0207971 -0.0161088 0
0.0199655 -0.0090117 0
0.0278789 -0.0133839 0
0.0254216 -0.00610392 0
0.0199655 -0.0090117 0
0.0924522 0.00478248 0
0.0254216 -0.00610392 0
0.108711 0.00561505 0
0.0278789 -0.0133839 0
0.0254216 -0.00610392 0
0.0361247 -0.0116077 0
0.0300654 -0.0041884 0
0.0254216 -0.00610392 0
0.108711 0.00561505 0
0.0300654 -0.0041884 0
0.122579 0.00621475 0
0.0361247 -0.0116077 0
0.0300654 -0.0041884 0
0.0402186 -0.00137815 0
0.0332788 -0.000782134 0
0.0300654 -0.0041884 0
0.122579 0.00621475 0
0.0332788 -0.000782134 0
0.13467 0.00734873 0
0.0402186 -0.00137815 0
0.0332788 -0.000782134 0
0.0350068 0.0105574 0
0.0328054 0.00267576 0
0.0332788 -0.000782134 0
0.13467 0.00734873 0
0.0328054 0.00267576 0
0.145508 0.00739328 0
0.0350068 0.0105574 0
0.0328054 0.00267576 0
0.0257853 0.00696845 0
0.0316381 0.00234652 0
0.0328054 0.00267576 0
0.145508 0.00739328 0
0.0316381 0.00234652 0
0.155155 0.00843207 0
0.0257853 0.00696845 0
0.0316381 0.00234652 0
0.0176478 0.00122232 0
0.0352544 0.000319903 0
0.0316381 0.00234652 0
0.155155 0.00843207 0
0.0352544 0.000319903 0
0.163281 0.00889086 0
0.0176478 0.00122232 0
0.0352544 0.000319903 0
0.0115345 0.0104947 0
0.0379813 0.00711114 0
0.0352544 0.000319903 0
0.163281 0.00889086 0
0.0379813 0.00711114 0
0.16997 0.0102639 0
0.0115345 0.0104947 0
0.0379813 0.00711114 0
0.00870352 0.0230096 0
0.0299258 0.013167 0
0.0379813 0.00711114 0
0.16997 0.0102639 0
0.0299258 0.013167 0
0.175821 0.00767496 0
0 0 0
-0.000293391 0.0141371 0
0 0 0
0.00109764 0.0134762 0
-0.000293391 0.0141371 0
-0.00133176 0.0275765 0
0.00109764 0.0134762 0
0.00254656 0.0279796 0
0 0 0
0.00109764 0.0134762 0
0 0 0
-5.52902e-05 0.0125734 0
0.00109764 0.0134762 0
0.00254656 0.0279796 0
-5.52902e-05 0.0125734 0
0.00615172 0.0202535 0
-0.00133176 0.0275765 0
-0.00206715 0.0257844 0
0.00254656 0.0279796 0
0.0036431 0.025257 0
-0.00206715 0.0257844 0
-0.00146406 0.0241497 0
0.0036431 0.025257 0
0.0061783 0.0212663 0
0.00254656 0.0279796 0
0.0036431 0.025257 0
0.00615172 0.0202535 0
0.0147188 0.0220786 0
0.0036431 0.025257 0
0.0061783 0.0212663 0
0.0147188 0.0220786 0
0.0201047 0.0153452 0
-0.0186061 -0.0485775 0
-0.0408849 -0.0671899 0
-0.00927178 -0.0301631 0
-0.0299357 -0.0356532 0
-0.0408849 -0.0671899 0
-0.068134 -0.0830104 0
-0.0299357 -0.0356532 0
-0.0599175 -0.0482136 0
-0.00927178 -0.0301631 0
-0.0299357 -0.0356532 0
0.00821768 -0.0219021 0
-0.00417418 -0.00490324 0
-0.0299357 -0.0356532 0
-0.0599175 -0.0482136 0
-0.00417418 -0.00490324 0
-0.0382092 -0.00467133 0
0.00821768 -0.0219021 0
-0.00417418 -0.00490324 0
0.0317925 -0.0123944 0
0.0304324 0.00132098 0
-0.00417418 -0.00490324 0
-0.0382092 -0.00467133 0
0.0304324 0.00132098 0
0.0475642 0.00863692 0
0.0317925 -0.0123944 0
0.0304324 0.00132098 0
0.177941 -0.00796689 0
0.182282 -0.00704304 0
0.0304324 0.00132098 0
0.0475642 0.00863692 0
0.182282 -0.00704304 0
0.183937 -0.0047947 0
-0.068134 -0.0830104 0
-0.0834435 -0.0118824 0
-0.0599175 -0.0482136 0
-0.0739075 -0.0115558 0
-0.0834435 -0.0118824 0
-0.0682164 0.0565639 0
-0.0739075 -0.0115558 0
-0.0621974 0.0243344 0
-0.0599175 -0.0482136 0
-0.0739075 -0.0115558 0
-0.0382092 -0.00467133 0
-0.0441426 -0.0310026 0
-0.0739075 -0.0115558 0
-0.0621974 0.0243344 0
-0.0441426 -0.0310026 0
-0.0397765 0.024307 0
-0.0682164 0.0565639 0
-0.0461832 0.0486592 0
-0.0621974 0.0243344 0
-0.0489458 0.039619 0
-0.0461832 0.0486592 0
-0.042971 0.0410894 0
-0.0489458 0.039619 0
-0.0331744 0.0279562 0
-0.0621974 0.0243344 0
-0.0489458 0.039619 0
-0.0397765 0.024307 0
-0.0423927 0.0275969 0
-0.0489458 0.039619 0
-0.0331744 0.0279562 0
-0.0423927 0.0275969 0
-0.0224569 -0.00162514 0
-0.042971 0.0410894 0
-0.0386839 0.0270073 0
-0.0331744 0.0279562 0
-0.00106526 -0.00241774 0
-0.0386839 0.0270073 0
-0.012448 0.0115103 0
-0.00106526 -0.00241774 0
0.0132706 -0.00690284 0
-0.0331744 0.0279562 0
-0.00106526 -0.00241774 0
-0.0224569 -0.00162514 0
-0.0234157 -0.00895342 0
-0.00106526 -0.00241774 0
0.0132706 -0.00690284 0
-0.0234157 -0.00895342 0
-0.0302194 -0.00887275 0
0 0 0
0 0 0
-0.00242317 0.00677956 0
-0.037696 0.0342223 0
0 0 0
0 0 0
-0.037696 0.0342223 0
-0.0368884 -0.0340036 0
-0.00242317 0.00677956 0
-0.037696 0.0342223 0
-0.00934923 0.027334 0
0.0125909 0.0291043 0
-0.037696 0.0342223 0
-0.0368884 -0.0340036 0
0.0125909 0.0291043 0
0.0136746 -0.0303046 0
-0.00934923 0.027334 0
0.0125909 0.0291043 0
-0.0113536 0.0372109 0
0.00766055 -0.0275101 0
0.0125909 0.0291043 0
0.0136746 -0.0303046 0
0.00766055 -0.0275101 0
-0.00240234 0.0361231 0
-0.0113536 0.0372109 0
0.00766055 -0.0275101 0
-0.012448 0.0115103 0
-0.00570862 -0.0300503 0
0.00766055 -0.0275101 0
-0.00240234 0.0361231 0
-0.00570862 -0.0300503 0
-0.0195598 0.0657011 0
-0.012448 0.0115103 0
-0.00570862 -0.0300503 0
0.0132706 -0.00690284 0
-0.0109281 0.0082769 0
-0.00570862 -0.0300503 0
-0.0195598 0.0657011 0
-0.0109281 0.0082769 0
-0.0212809 0.0550912 0
0.0132706 -0.00690284 0
-0.0109281 0.0082769 0
-0.0302194 -0.00887275 0
-0.0120766 0.0171782 0
-0.0109281 0.0082769 0
-0.0212809 0.0550912 0
-0.0120766 0.0171782 0
0.00914068 0.0336695 0
0 0 0
0 0 0
-0.0368884 -0.0340036 0
-0.0175955 0.0104154 0
0 0 0
0 0 0
-0.0175955 0.0104154 0
-0.0224425 -0.00389114 0
-0.0368884 -0.0340036 0
-0.0175955 0.0104154 0
0.0136746 -0.0303046 0
-0.0290732 0.0329286 0
-0.0175955 0.0104154 0
-0.0224425 -0.00389114 0
-0.0290732 0.0329286 0
-0.0432671 -0.00254531 0
0.0136746 -0.0303046 0
-0.0290732 0.0329286 0
-0.00240234 0.0361231 0
-0.0274465 0.0454461 0
-0.0290732 0.0329286 0
-0.0432671 -0.00254531 0
-0.0274465 0.0454461 0
-0.0265451 0.00129738 0
-0.00240234 0.0361231 0
-0.0274465 0.0454461 0
-0.0195598 0.0657011 0
-0.00367904 0.026424 0
-0.0274465 0.0454461 0
-0.0265451 0.00129738 0
-0.00367904 0.026424 0
0.0174302 -0.00523511 0
-0.0195598 0.0657011 0
-0.00367904 0.026424 0
-0.0212809 0.0550912 0
-0.0157644 0.0119688 0
-0.00367904 0.026424 0
0.0174302 -0.00523511 0
-0.0157644 0.0119688 0
-0.0149681 -0.0161682 0
-0.0212809 0.0550912 0
-0.0157644 0.0119688 0
0.00914068 0.0336695 0
0.0202833 0.0135202 0
-0.0157644 0.0119688 0
-0.0149681 -0.0161682 0
0.0202833 0.0135202 0
0.00577074 -0.00186649 0
0 0 0
0 0 0
-0.0224425 -0.00389114 0
-0.0162514 -0.00385942 0
0 0 0
0 0 0
-0.0162514 -0.00385942 0
-0.00367515 -0.0105385 0
-0.0224425 -0.00389114 0
-0.0162514 -0.00385942 0
-0.0432671 -0.00254531 0
-0.0411259 -0.0155544 0
-0.0162514 -0.00385942 0
-0.00367515 -0.0105385 0
-0.0411259 -0.0155544 0
-0.0275699 -0.0288189 0
-0.0432671 -0.00254531 0
-0.0411259 -0.0155544 0
-0.0265451 0.00129738 0
-0.0302089 -0.0179469 0
-0.0411259 -0.0155544 0
-0.0275699 -0.0288189 0
-0.0302089 -0.0179469 0
-0.0306751 -0.0416661 0
-0.0265451 0.00129738 0
-0.0302089 -0.0179469 0
0.0174302 -0.00523511 0
0.00995093 0.00115989 0
-0.0302089 -0.0179469 0
-0.0306751 -0.0416661 0
0.00995093 0.00115989 0
-0.0110239 -0.0358412 0
0.0174302 -0.00523511 0
0.00995093 0.00115989 0
-0.0149681 -0.0161682 0
-0.00358583 0.00754653 0
0.00995093 0.00115989 0
-0.0110239 -0.0358412 0
-0.00358583 0.00754653 0
-0.000663223 -0.0212039 0
-0.0149681 -0.0161682 0
-0.00358583 0.00754653 0
0.00577074 -0.00186649 0
0.00214683 -0.0165178 0
-0.00358583 0.00754653 0
-0.000663223 -0.0212039 0
0.00214683 -0.0165178 0
0.0029936 -0.00179633 0
0 0 0
0 0 0
-0.00367515 -0.0105385 0
0.00277272 0.00304739 0
0 0 0
0 0 0
0.00277272 0.00304739 0
0 0 0
-0.00367515 -0.0105385 0
0.00277272 0.00304739 0
-0.0275699 -0.0288189 0
-0.0103532 -0.00609858 0
0.00277272 0.00304739 0
0 0 0
-0.0103532 -0.00609858 0
0 0 0
-0.0275699 -0.0288189 0
-0.0103532 -0.00609858 0
-0.0306751 -0.0416661 0
-0.0130434 -0.0339845 0
-0.0103532 -0.00609858 0
0 0 0
-0.0130434 -0.0339845 0
0 0 0
-0.0306751 -0.0416661 0
-0.0130434 -0.0339845 0
-0.0110239 -0.0358412 0
-0.0100834 -0.0613056 0
-0.0130434 -0.0339845 0
0 0 0
-0.0100834 -0.0613056 0
0 0 0
-0.0110239 -0.0358412 0
-0.0100834 -0.0613056 0
-0.000663223 -0.0212039 0
-0.00203933 -0.0756433 0
-0.0100834 -0.0613056 0
0 0 0
-0.00203933 -0.0756433 0
0 0 0
-0.000663223 -0.0212039 0
-0.00203933 -0.0756433 0
0.0029936 -0.00179633 0
-0.00558755 -0.0846465 0
-0.00203933 -0.0756433 0
0 0 0
-0.00558755 -0.0846465 0
0 0 0
0.175821 0.00767496 0
0.179138 0.00751068 0
0.180248 0.00698486 0
0.173854 0.00565748 0
0.179138 0.00751068 0
0.133182 0.00331696 0
0.173854 0.00565748 0
0.131956 0.00259503 0
0.180248 0.00698486 0
0.173854 0.00565748 0
0.181995 0.00464357 0
0.17066 0.00369506 0
0.173854 0.00565748 0
0.131956 0.00259503 0
0.17066 0.00369506 0
0.130799 0.00180193 0
0.168861 0.00681546 0
0.107102 0.00587786 0
0.164724 0.00666192 0
0.109585 0.00567999 0
0.107102 0.00587786 0
0.229099 -0.000231925 0
0.109585 0.00567999 0
0.216378 -0.000218043 0
0.164724 0.00666192 0
0.109585 0.00567999 0
0.16061 0.00657421 0
0.111644 0.00519101 0
0.109585 0.00567999 0
0.216378 -0.000218043 0
0.111644 0.00519101 0
0.204766 -0.000199578 0
0.16061 0.00657421 0
0.111644 0.00519101 0
0.156428 0.00620926 0
0.11354 0.00493897 0
0.111644 0.00519101 0
0.204766 -0.000199578 0
0.11354 0.00493897 0
0.194067 -0.000183723 0
0.156428 0.00620926 0
0.11354 0.00493897 0
0.152696 0.0056481 0
0.115199 0.00447179 0
0.11354 0.00493897 0
0.194067 -0.000183723 0
0.115199 0.00447179 0
0.184269 -0.000160909 0
0.152696 0.0056481 0
0.115199 0.00447179 0
0.149414 0.00527243 0
0.116591 0.0042441 0
0.115199 0.00447179 0
0.184269 -0.000160909 0
0.116591 0.0042441 0
0.175389 -0.000137293 0
0.149414 0.00527243 0
0.116591 0.0042441 0
0.146437 0.00511732 0
0.11768 0.00385073 0
0.116591 0.0042441 0
0.175389 -0.000137293 0
0.11768 0.00385073 0
0.167429 -0.000109338 0
0.146437 0.00511732 0
0.11768 0.00385073 0
0.143724 0.00493377 0
0.118421 0.00379164 0
0.11768 0.00385073 0
0.167429 -0.000109338 0
0.118421 0.00379164 0
0.160296 -9.91491e-05 0
0.143724 0.00493377 0
0.118421 0.00379164 0
0.141238 0.00476569 0
0.118824 0.00339166 0
0.118421 0.00379164 0
0.160296 -9.91491e-05 0
0.118824 0.00339166 0
0.153852 -7.77488e-05 0
0.141238 0.00476569 0
0.118824 0.00339166 0
0.138952 0.00456066 0
0.118887 0.00341663 0
0.118824 0.00339166 0
0.153852 -7.77488e-05 0
0.118887 0.00341663 0
0.148081 -5.72548e-05 0
0.138952 0.00456066 0
0.118887 0.00341663 0
0.136773 0.00474403 0
0.118672 0.0030661 0
0.118887 0.00341663 0
0.148081 -5.72548e-05 0
0.118672 0.0030661 0
0.142995 -2.67396e-05 0
0.136773 0.00474403 0
0.118672 0.0030661 0
0.13478 0.00409381 0
0.118331 0.00304831 0
0.118672 0.0030661 0
0.142995 -2.67396e-05 0
0.118331 0.00304831 0
0.13844 -4.83234e-05 0
0.13478 0.00409381 0
0.118331 0.00304831 0
0.133182 0.00331696 0
0.11804 0.00234661 0