# vtk DataFile Version 3.0
#This file was generated by the deal.II library on 2026/3/26 at 11:16:53
ASCII
DATASET UNSTRUCTURED_GRID

POINTS 3648 double
0 0 0
0.214286 0 0
0 0.25 0
0.214286 0.25 0
0 0.25 0
0.214286 0.25 0
0 0.5 0
0.214286 0.5 0
0.214286 0 0
0.428571 0 0
0.214286 0.25 0
0.428571 0.25 0
0.214286 0.25 0
0.428571 0.25 0
0.214286 0.5 0
0.428571 0.5 0
0.428571 0 0
0.642857 0 0
0.428571 0.25 0
0.642857 0.25 0
0.428571 0.25 0
0.642857 0.25 0
0.428571 0.5 0
0.642857 0.5 0
0.428571 0.5 0
0.642857 0.5 0
0.428571 0.75 0
0.642857 0.75 0
0.642857 0 0
0.857143 0 0
0.642857 0.25 0
0.857143 0.25 0
0.642857 0.25 0
0.857143 0.25 0
0.642857 0.5 0
0.857143 0.5 0
0.642857 0.5 0
0.857143 0.5 0
0.642857 0.75 0
0.857143 0.75 0
0.857143 0 0
1.07143 0 0
0.857143 0.25 0
1.07143 0.25 0
0.857143 0.25 0
1.07143 0.25 0
0.857143 0.5 0
1.07143 0.5 0
0.857143 0.5 0
1.07143 0.5 0
0.857143 0.75 0
1.07143 0.75 0
1.07143 0 0
1.28571 0 0
1.07143 0.25 0
1.28571 0.25 0
1.07143 0.25 0
1.28571 0.25 0
1.07143 0.5 0
1.28571 0.5 0
1.07143 0.5 0
1.28571 0.5 0
1.07143 0.75 0
1.28571 0.75 0
1.28571 0 0
1.5 0 0
1.28571 0.25 0
1.5 0.25 0
1.28571 0.25 0
1.5 0.25 0
1.28571 0.5 0
1.5 0.5 0
1.5 0 0
1.71429 0 0
1.5 0.25 0
1.71429 0.25 0
1.5 0.25 0
1.71429 0.25 0
1.5 0.5 0
1.71429 0.5 0
1.71429 0 0
1.92857 0 0
1.71429 0.25 0
1.92857 0.25 0
1.71429 0.25 0
1.92857 0.25 0
1.71429 0.5 0
1.92857 0.5 0
1.92857 0 0
2.14286 0 0
1.92857 0.25 0
2.14286 0.25 0
1.92857 0.25 0
2.14286 0.25 0
1.92857 0.5 0
2.14286 0.5 0
0 3 0
0 2.75 0
0.214286 3 0
0.214286 2.75 0
0.214286 3 0
0.214286 2.75 0
0.428571 3 0
0.428571 2.75 0
0.428571 3 0
0.428571 2.75 0
0.642857 3 0
0.642857 2.75 0
0.642857 3 0
0.642857 2.75 0
0.857143 3 0
0.857143 2.75 0
0.857143 3 0
0.857143 2.75 0
1.07143 3 0
1.07143 2.75 0
1.07143 3 0
1.07143 2.75 0
1.28571 3 0
1.28571 2.75 0
1.28571 3 0
1.28571 2.75 0
1.5 3 0
1.5 2.75 0
1.5 3 0
1.5 2.75 0
1.71429 3 0
1.71429 2.75 0
1.71429 3 0
1.71429 2.75 0
1.92857 3 0
1.92857 2.75 0
1.92857 3 0
1.92857 2.75 0
2.14286 3 0
2.14286 2.75 0
0 2.75 0
0 2.5 0
0.214286 2.75 0
0.214286 2.5 0
0.214286 2.75 0
0.214286 2.5 0
0.428571 2.75 0
0.428571 2.5 0
0.428571 2.75 0
0.428571 2.5 0
0.642857 2.75 0
0.642857 2.5 0
0.642857 2.75 0
0.642857 2.5 0
0.857143 2.75 0
0.857143 2.5 0
0.857143 2.75 0
0.857143 2.5 0
1.07143 2.75 0
1.07143 2.5 0
1.07143 2.75 0
1.07143 2.5 0
1.28571 2.75 0
1.28571 2.5 0
1.28571 2.75 0
1.28571 2.5 0
1.5 2.75 0
1.5 2.5 0
1.5 2.75 0
1.5 2.5 0
1.71429 2.75 0
1.71429 2.5 0
1.71429 2.75 0
1.71429 2.5 0
1.92857 2.75 0
1.92857 2.5 0
1.92857 2.75 0
1.92857 2.5 0
2.14286 2.75 0
2.14286 2.5 0
0.428571 2.5 0
0.428571 2.25 0
0.642857 2.5 0
0.642857 2.25 0
0.642857 2.5 0
0.642857 2.25 0
0.857143 2.5 0
0.857143 2.25 0
0.857143 2.5 0
0.857143 2.25 0
1.07143 2.5 0
1.07143 2.25 0
1.07143 2.5 0
1.07143 2.25 0
1.28571 2.5 0
1.28571 2.25 0
0.214286 0.75 0
0.321429 0.75 0
0.214286 0.875 0
0.321429 0.875 0
0.321429 0.75 0
0.428571 0.75 0
0.321429 0.875 0
0.428571 0.875 0
0.214286 0.875 0
0.321429 0.875 0
0.214286 1 0
0.321429 1 0
0.321429 0.875 0
0.428571 0.875 0
0.321429 1 0
0.428571 1 0
0.428571 0.75 0
0.535714 0.75 0
0.428571 0.875 0
0.535714 0.875 0
0.535714 0.75 0
0.642857 0.75 0
0.535714 0.875 0
0.642857 0.875 0
0.428571 0.875 0
0.535714 0.875 0
0.428571 1 0
0.535714 1 0
0.535714 0.875 0
0.642857 0.875 0
0.535714 1 0
0.642857 1 0
0.642857 0.75 0
0.75 0.75 0
0.642857 0.875 0
0.75 0.875 0
0.75 0.75 0
0.857143 0.75 0
0.75 0.875 0
0.857143 0.875 0
0.642857 0.875 0
0.75 0.875 0
0.642857 1 0
0.75 1 0
0.75 0.875 0
0.857143 0.875 0
0.75 1 0
0.857143 1 0
0.857143 0.75 0
0.964286 0.75 0
0.857143 0.875 0
0.964286 0.875 0
0.964286 0.75 0
1.07143 0.75 0
0.964286 0.875 0
1.07143 0.875 0
0.857143 0.875 0
0.964286 0.875 0
0.857143 1 0
0.964286 1 0
0.964286 0.875 0
1.07143 0.875 0
0.964286 1 0
1.07143 1 0
1.07143 0.75 0
1.17857 0.75 0
1.07143 0.875 0
1.17857 0.875 0
1.17857 0.75 0
1.28571 0.75 0
1.17857 0.875 0
1.28571 0.875 0
1.07143 0.875 0
1.17857 0.875 0
1.07143 1 0
1.17857 1 0
1.17857 0.875 0
1.28571 0.875 0
1.17857 1 0
1.28571 1 0
0.214286 2 0
0.214286 1.875 0
0.321429 2 0
0.321429 1.875 0
0.214286 1.875 0
0.214286 1.75 0
0.321429 1.875 0
0.321429 1.75 0
0.321429 2 0
0.321429 1.875 0
0.428571 2 0
0.428571 1.875 0
0.321429 1.875 0
0.321429 1.75 0
0.428571 1.875 0
0.428571 1.75 0
0.428571 2 0
0.428571 1.875 0
0.535714 2 0
0.535714 1.875 0
0.428571 1.875 0
0.428571 1.75 0
0.535714 1.875 0
0.535714 1.75 0
0.535714 2 0
0.535714 1.875 0
0.642857 2 0
0.642857 1.875 0
0.535714 1.875 0
0.535714 1.75 0
0.642857 1.875 0
0.642857 1.75 0
0.642857 2 0
0.642857 1.875 0
0.75 2 0
0.75 1.875 0
0.642857 1.875 0
0.642857 1.75 0
0.75 1.875 0
0.75 1.75 0
0.75 2 0
0.75 1.875 0
0.857143 2 0
0.857143 1.875 0
0.75 1.875 0
0.75 1.75 0
0.857143 1.875 0
0.857143 1.75 0
0.857143 2 0
0.857143 1.875 0
0.964286 2 0
0.964286 1.875 0
0.857143 1.875 0
0.857143 1.75 0
0.964286 1.875 0
0.964286 1.75 0
0.964286 2 0
0.964286 1.875 0
1.07143 2 0
1.07143 1.875 0
0.964286 1.875 0
0.964286 1.75 0
1.07143 1.875 0
1.07143 1.75 0
1.07143 2 0
1.07143 1.875 0
1.17857 2 0
1.17857 1.875 0
1.07143 1.875 0
1.07143 1.75 0
1.17857 1.875 0
1.17857 1.75 0
1.17857 2 0
1.17857 1.875 0
1.28571 2 0
1.28571 1.875 0
1.17857 1.875 0
1.17857 1.75 0
1.28571 1.875 0
1.28571 1.75 0
0.214286 1.25 0
0.214286 1.125 0
0.321429 1.25 0
0.321429 1.125 0
0.214286 1.125 0
0.214286 1 0
0.321429 1.125 0
0.321429 1 0
0.321429 1.25 0
0.321429 1.125 0
0.428571 1.25 0
0.428571 1.125 0
0.321429 1.125 0
0.321429 1 0
0.428571 1.125 0
0.428571 1 0
0.428571 1.25 0
0.428571 1.125 0
0.535714 1.25 0
0.535714 1.125 0
0.428571 1.125 0
0.428571 1 0
0.535714 1.125 0
0.535714 1 0
0.535714 1.25 0
0.535714 1.125 0
0.642857 1.25 0
0.642857 1.125 0
0.535714 1.125 0
0.535714 1 0
0.642857 1.125 0
0.642857 1 0
0.642857 1.25 0
0.642857 1.125 0
0.75 1.25 0
0.75 1.125 0
0.642857 1.125 0
0.642857 1 0
0.75 1.125 0
0.75 1 0
0.75 1.25 0
0.75 1.125 0
0.857143 1.25 0
0.857143 1.125 0
0.75 1.125 0
0.75 1 0
0.857143 1.125 0
0.857143 1 0
0.857143 1.25 0
0.857143 1.125 0
0.964286 1.25 0
0.964286 1.125 0
0.857143 1.125 0
0.857143 1 0
0.964286 1.125 0
0.964286 1 0
0.964286 1.25 0
0.964286 1.125 0
1.07143 1.25 0
1.07143 1.125 0
0.964286 1.125 0
0.964286 1 0
1.07143 1.125 0
1.07143 1 0
1.07143 1.25 0
1.07143 1.125 0
1.17857 1.25 0
1.17857 1.125 0
1.07143 1.125 0
1.07143 1 0
1.17857 1.125 0
1.17857 1 0
1.17857 1.25 0
1.17857 1.125 0
1.28571 1.25 0
1.28571 1.125 0
1.17857 1.125 0
1.17857 1 0
1.28571 1.125 0
1.28571 1 0
0.214286 2.25 0
0.214286 2.125 0
0.321429 2.25 0
0.321429 2.125 0
0.214286 2.125 0
0.214286 2 0
0.321429 2.125 0
0.321429 2 0
0.321429 2.25 0
0.321429 2.125 0
0.428571 2.25 0
0.428571 2.125 0
0.321429 2.125 0
0.321429 2 0
0.428571 2.125 0
0.428571 2 0
0.428571 2.25 0
0.428571 2.125 0
0.535714 2.25 0
0.535714 2.125 0
0.428571 2.125 0
0.428571 2 0
0.535714 2.125 0
0.535714 2 0
0.535714 2.25 0
0.535714 2.125 0
0.642857 2.25 0
0.642857 2.125 0
0.535714 2.125 0
0.535714 2 0
0.642857 2.125 0
0.642857 2 0
0.642857 2.25 0
0.642857 2.125 0
0.75 2.25 0
0.75 2.125 0
0.642857 2.125 0
0.642857 2 0
0.75 2.125 0
0.75 2 0
0.75 2.25 0
0.75 2.125 0
0.857143 2.25 0
0.857143 2.125 0
0.75 2.125 0
0.75 2 0
0.857143 2.125 0
0.857143 2 0
0.857143 2.25 0
0.857143 2.125 0
0.964286 2.25 0
0.964286 2.125 0
0.857143 2.125 0
0.857143 2 0
0.964286 2.125 0
0.964286 2 0
0.964286 2.25 0
0.964286 2.125 0
1.07143 2.25 0
1.07143 2.125 0
0.964286 2.125 0
0.964286 2 0
1.07143 2.125 0
1.07143 2 0
1.07143 2.25 0
1.07143 2.125 0
1.17857 2.25 0
1.17857 2.125 0
1.07143 2.125 0
1.07143 2 0
1.17857 2.125 0
1.17857 2 0
1.17857 2.25 0
1.17857 2.125 0
1.28571 2.25 0
1.28571 2.125 0
1.17857 2.125 0
1.17857 2 0
1.28571 2.125 0
1.28571 2 0
0 0.5 0
0.107143 0.5 0
0 0.625 0
0.107143 0.625 0
0.107143 0.5 0
0.214286 0.5 0
0.107143 0.625 0
0.214286 0.625 0
0 0.625 0
0.107143 0.625 0
0 0.75 0
0.107143 0.75 0
0.107143 0.625 0
0.214286 0.625 0
0.107143 0.75 0
0.214286 0.75 0
0.214286 0.5 0
0.321429 0.5 0
0.214286 0.625 0
0.321429 0.625 0
0.321429 0.5 0
0.428571 0.5 0
0.321429 0.625 0
0.428571 0.625 0
0.214286 0.625 0
0.321429 0.625 0
0.214286 0.75 0
0.321429 0.75 0
0.321429 0.625 0
0.428571 0.625 0
0.321429 0.75 0
0.428571 0.75 0
1.28571 0.5 0
1.39286 0.5 0
1.28571 0.625 0
1.39286 0.625 0
1.39286 0.5 0
1.5 0.5 0
1.39286 0.625 0
1.5 0.625 0
1.28571 0.625 0
1.39286 0.625 0
1.28571 0.75 0
1.39286 0.75 0
1.39286 0.625 0
1.5 0.625 0
1.39286 0.75 0
1.5 0.75 0
1.28571 0.75 0
1.39286 0.75 0
1.28571 0.875 0
1.39286 0.875 0
1.39286 0.75 0
1.5 0.75 0
1.39286 0.875 0
1.5 0.875 0
1.28571 0.875 0
1.39286 0.875 0
1.28571 1 0
1.39286 1 0
1.39286 0.875 0
1.5 0.875 0
1.39286 1 0
1.5 1 0
1.5 0.5 0
1.60714 0.5 0
1.5 0.625 0
1.60714 0.625 0
1.60714 0.5 0
1.71429 0.5 0
1.60714 0.625 0
1.71429 0.625 0
1.5 0.625 0
1.60714 0.625 0
1.5 0.75 0
1.60714 0.75 0
1.60714 0.625 0
1.71429 0.625 0
1.60714 0.75 0
1.71429 0.75 0
1.71429 0.5 0
1.82143 0.5 0
1.71429 0.625 0
1.82143 0.625 0
1.82143 0.5 0
1.92857 0.5 0
1.82143 0.625 0
1.92857 0.625 0
1.71429 0.625 0
1.82143 0.625 0
1.71429 0.75 0
1.82143 0.75 0
1.82143 0.625 0
1.92857 0.625 0
1.82143 0.75 0
1.92857 0.75 0
1.92857 0.5 0
2.03571 0.5 0
1.92857 0.625 0
2.03571 0.625 0
2.03571 0.5 0
2.14286 0.5 0
2.03571 0.625 0
2.14286 0.625 0
1.92857 0.625 0
2.03571 0.625 0
1.92857 0.75 0
2.03571 0.75 0
2.03571 0.625 0
2.14286 0.625 0
2.03571 0.75 0
2.14286 0.75 0
2.14286 0 0
2.25 0 0
2.14286 0.125 0
2.25 0.125 0
2.25 0 0
2.35714 0 0
2.25 0.125 0
2.35714 0.125 0
2.14286 0.125 0
2.25 0.125 0
2.14286 0.25 0
2.25 0.25 0
2.25 0.125 0
2.35714 0.125 0
2.25 0.25 0
2.35714 0.25 0
2.14286 0.25 0
2.25 0.25 0
2.14286 0.375 0
2.25 0.375 0
2.25 0.25 0
2.35714 0.25 0
2.25 0.375 0
2.35714 0.375 0
2.14286 0.375 0
2.25 0.375 0
2.14286 0.5 0
2.25 0.5 0
2.25 0.375 0
2.35714 0.375 0
2.25 0.5 0
2.35714 0.5 0
2.14286 0.5 0
2.25 0.5 0
2.14286 0.625 0
2.25 0.625 0
2.25 0.5 0
2.35714 0.5 0
2.25 0.625 0
2.35714 0.625 0
2.14286 0.625 0
2.25 0.625 0
2.14286 0.75 0
2.25 0.75 0
2.25 0.625 0
2.35714 0.625 0
2.25 0.75 0
2.35714 0.75 0
2.35714 0 0
2.46429 0 0
[...]
POINT_DATA 3648
VECTORS velocity double
0 0 0
0 0 0
0 0 0
-0.0115494 0.0129959 0
0 0 0
-0.0115494 0.0129959 0
0 0 0
-0.00157649 0.0284567 0
0 0 0
0 0 0
-0.0115494 0.0129959 0
-0.0343184 0.0133474 0
-0.0115494 0.0129959 0
-0.0343184 0.0133474 0
-0.00157649 0.0284567 0
-0.00176889 0.0250316 0
0 0 0
0 0 0
-0.0343184 0.0133474 0
-0.0523671 0.00809822 0
-0.0343184 0.0133474 0
-0.0523671 0.00809822 0
-0.00176889 0.0250316 0
-0.00270163 0.0186011 0
-0.00176889 0.0250316 0
-0.00270163 0.0186011 0
0.0206249 0.0158831 0
0.0358105 0.0116562 0
0 0 0
0 0 0
-0.0523671 0.00809822 0
-0.0586626 -0.000427367 0
-0.0523671 0.00809822 0
-0.0586626 -0.000427367 0
-0.00270163 0.0186011 0
0.00324216 -0.0115963 0
-0.00270163 0.0186011 0
0.00324216 -0.0115963 0
0.0358105 0.0116562 0
0.0347961 -0.0102944 0
0 0 0
0 0 0
-0.0586626 -0.000427367 0
-0.0485203 -0.0110876 0
-0.0586626 -0.000427367 0
-0.0485203 -0.0110876 0
0.00324216 -0.0115963 0
0.00717581 -0.0161977 0
0.00324216 -0.0115963 0
0.00717581 -0.0161977 0
0.0347961 -0.0102944 0
0.0176642 -0.00114223 0
0 0 0
0 0 0
-0.0485203 -0.0110876 0
-0.00765969 -0.0388563 0
-0.0485203 -0.0110876 0
-0.00765969 -0.0388563 0
0.00717581 -0.0161977 0
-0.0201395 -0.049712 0
0.00717581 -0.0161977 0
-0.0201395 -0.049712 0
0.0176642 -0.00114223 0
0.00833332 -0.0226046 0
0 0 0
0 0 0
-0.00765969 -0.0388563 0
0.0726919 -0.056036 0
-0.00765969 -0.0388563 0
0.0726919 -0.056036 0
-0.0201395 -0.049712 0
-0.0672288 -0.0821777 0
0 0 0
0 0 0
0.0726919 -0.056036 0
0.0818101 0.0457506 0
0.0726919 -0.056036 0
0.0818101 0.0457506 0
-0.0672288 -0.0821777 0
-0.066189 0.0577664 0
0 0 0
0 0 0
0.0818101 0.0457506 0
0.028057 0.0167321 0
0.0818101 0.0457506 0
0.028057 0.0167321 0
-0.066189 0.0577664 0
-0.042291 0.0403346 0
0 0 0
0 0 0
0.028057 0.0167321 0
-0.0104249 0.0269498 0
0.028057 0.0167321 0
-0.0104249 0.0269498 0
-0.042291 0.0403346 0
-0.0117859 0.0122246 0
0 0 0
0 0 0
0 0 0
-0.0116455 -0.0131023 0
0 0 0
-0.0116455 -0.0131023 0
0 0 0
-0.034555 -0.013401 0
0 0 0
-0.034555 -0.013401 0
0 0 0
-0.0525663 -0.00801019 0
0 0 0
-0.0525663 -0.00801019 0
0 0 0
-0.0586901 0.000530811 0
0 0 0
-0.0586901 0.000530811 0
0 0 0
-0.0484853 0.0110605 0
0 0 0
-0.0484853 0.0110605 0
0 0 0
-0.00758612 0.0389468 0
0 0 0
-0.00758612 0.0389468 0
0 0 0
0.0728215 0.0560172 0
0 0 0
0.0728215 0.0560172 0
0 0 0
0.0819114 -0.045755 0
0 0 0
0.0819114 -0.045755 0
0 0 0
0.0282091 -0.0166791 0
0 0 0
0.0282091 -0.0166791 0
0 0 0
-0.0103282 -0.0270601 0
0 0 0
0 0 0
-0.0116455 -0.0131023 0
-0.00158841 -0.0286933 0
-0.0116455 -0.0131023 0
-0.00158841 -0.0286933 0
-0.034555 -0.013401 0
-0.00174417 -0.0250815 0
-0.034555 -0.013401 0
-0.00174417 -0.0250815 0
-0.0525663 -0.00801019 0
-0.00262964 -0.0184155 0
-0.0525663 -0.00801019 0
-0.00262964 -0.0184155 0
-0.0586901 0.000530811 0
0.00335985 0.0118656 0
-0.0586901 0.000530811 0
0.00335985 0.0118656 0
-0.0484853 0.0110605 0
0.0073542 0.0161446 0
-0.0484853 0.0110605 0
0.0073542 0.0161446 0
-0.00758612 0.0389468 0
-0.0201049 0.0497033 0
-0.00758612 0.0389468 0
-0.0201049 0.0497033 0
0.0728215 0.0560172 0
-0.0672811 0.082199 0
0.0728215 0.0560172 0
-0.0672811 0.082199 0
0.0819114 -0.045755 0
-0.0661951 -0.0577734 0
0.0819114 -0.045755 0
-0.0661951 -0.0577734 0
0.0282091 -0.0166791 0
-0.0423029 -0.0402317 0
0.0282091 -0.0166791 0
-0.0423029 -0.0402317 0
-0.0103282 -0.0270601 0
-0.0118011 -0.0124454 0
-0.00174417 -0.0250815 0
0.0207685 -0.0159488 0
-0.00262964 -0.0184155 0
0.0358815 -0.0114858 0
-0.00262964 -0.0184155 0
0.0358815 -0.0114858 0
0.00335985 0.0118656 0
0.0347332 0.010462 0
0.00335985 0.0118656 0
0.0347332 0.010462 0
0.0073542 0.0161446 0
0.0174518 0.00106876 0
0.0073542 0.0161446 0
0.0174518 0.00106876 0
-0.0201049 0.0497033 0
0.0081912 0.0225368 0
0.00658863 0.0210485 0
0.0152532 0.0227441 0
0.00342411 0.0117549 0
0.0106623 0.0133379 0
0.0152532 0.0227441 0
0.0206249 0.0158831 0
0.0106623 0.0133379 0
0.0195225 0.00887401 0
0.00342411 0.0117549 0
0.0106623 0.0133379 0
0.0520468 -0.0033709 0
0.0741144 -0.00501577 0
0.0106623 0.0133379 0
0.0195225 0.00887401 0
0.0741144 -0.00501577 0
0.0930244 -0.00490185 0
0.0206249 0.0158831 0
0.0276928 0.0132847 0
0.0195225 0.00887401 0
0.024901 0.00602228 0
0.0276928 0.0132847 0
0.0358105 0.0116562 0
0.024901 0.00602228 0
0.0296642 0.00422975 0
0.0195225 0.00887401 0
0.024901 0.00602228 0
0.0930244 -0.00490185 0
0.109386 -0.00575871 0
0.024901 0.00602228 0
0.0296642 0.00422975 0
0.109386 -0.00575871 0
0.123315 -0.00634191 0
0.0358105 0.0116562 0
0.0398339 0.00154056 0
0.0296642 0.00422975 0
0.0330787 0.000798133 0
0.0398339 0.00154056 0
0.0347961 -0.0102944 0
0.0330787 0.000798133 0
0.032767 -0.00265776 0
0.0296642 0.00422975 0
0.0330787 0.000798133 0
0.123315 -0.00634191 0
0.135451 -0.0074732 0
0.0330787 0.000798133 0
0.032767 -0.00265776 0
0.135451 -0.0074732 0
0.146324 -0.00748454 0
0.0347961 -0.0102944 0
0.0257834 -0.00681474 0
0.032767 -0.00265776 0
0.0317347 -0.00235402 0
0.0257834 -0.00681474 0
0.0176642 -0.00114223 0
0.0317347 -0.00235402 0
0.0355014 -0.000284647 0
0.032767 -0.00265776 0
0.0317347 -0.00235402 0
0.146324 -0.00748454 0
0.15599 -0.00852391 0
0.0317347 -0.00235402 0
0.0355014 -0.000284647 0
0.15599 -0.00852391 0
0.16412 -0.00896532 0
0.0176642 -0.00114223 0
0.0114112 -0.0102138 0
0.0355014 -0.000284647 0
0.0385207 -0.00697549 0
0.0114112 -0.0102138 0
0.00833332 -0.0226046 0
0.0385207 -0.00697549 0
0.0309797 -0.0129245 0
0.0355014 -0.000284647 0
0.0385207 -0.00697549 0
0.16412 -0.00896532 0
0.170811 -0.0103691 0
0.0385207 -0.00697549 0
0.0309797 -0.0129245 0
0.170811 -0.0103691 0
0.176645 -0.00778068 0
0.0520534 0.00337817 0
0.24064 0.0132699 0
0.0741487 0.00501493 0
0.233599 0.0122832 0
0.24064 0.0132699 0
0.157974 0.00658844 0
0.233599 0.0122832 0
0.153845 0.0062317 0
0.0741487 0.00501493 0
0.233599 0.0122832 0
0.0930872 0.00490282 0
0.226995 0.0112186 0
0.233599 0.0122832 0
0.153845 0.0062317 0
0.226995 0.0112186 0
0.150175 0.00567055 0
0.0930872 0.00490282 0
0.226995 0.0112186 0
0.109478 0.00576906 0
0.220719 0.01022 0
0.226995 0.0112186 0
0.150175 0.00567055 0
0.220719 0.01022 0
0.146962 0.00529138 0
0.109478 0.00576906 0
0.220719 0.01022 0
0.12344 0.00636479 0
0.214682 0.00997637 0
0.220719 0.01022 0
0.146962 0.00529138 0
0.214682 0.00997637 0
0.144058 0.00513927 0
0.12344 0.00636479 0
0.214682 0.00997637 0
0.135604 0.00751562 0
0.208663 0.0095343 0
0.214682 0.00997637 0
0.144058 0.00513927 0
0.208663 0.0095343 0
0.141424 0.00495056 0
0.135604 0.00751562 0
0.208663 0.0095343 0
0.146499 0.00752734 0
0.202493 0.00946964 0
0.208663 0.0095343 0
0.141424 0.00495056 0
0.202493 0.00946964 0
0.139021 0.00477914 0
0.146499 0.00752734 0
0.202493 0.00946964 0
0.156188 0.00856436 0
0.196156 0.00902304 0
0.202493 0.00946964 0
0.139021 0.00477914 0
0.196156 0.00902304 0
0.136821 0.00455207 0
0.156188 0.00856436 0
0.196156 0.00902304 0
0.164336 0.00900292 0
0.189824 0.0094345 0
0.196156 0.00902304 0
0.136821 0.00455207 0
0.189824 0.0094345 0
0.134725 0.00475941 0
0.164336 0.00900292 0
0.189824 0.0094345 0
0.171036 0.0104101 0
0.183391 0.00877908 0
0.189824 0.0094345 0
0.134725 0.00475941 0
0.183391 0.00877908 0
0.132808 0.00409806 0
0.171036 0.0104101 0
0.183391 0.00877908 0
0.176874 0.00781114 0
0.176917 0.00757664 0
0.183391 0.00877908 0
0.132808 0.00409806 0
0.176917 0.00757664 0
0.131273 0.00334376 0
0.158244 -0.00659566 0
0.240585 -0.0132639 0
0.15411 -0.00623832 0
0.233568 -0.0122815 0
0.240585 -0.0132639 0
0.0520468 -0.0033709 0
0.233568 -0.0122815 0
0.0741144 -0.00501577 0
0.15411 -0.00623832 0
0.233568 -0.0122815 0
0.150435 -0.00567389 0
0.226985 -0.0112146 0
0.233568 -0.0122815 0
0.0741144 -0.00501577 0
0.226985 -0.0112146 0
0.0930244 -0.00490185 0
0.150435 -0.00567389 0
0.226985 -0.0112146 0
0.147216 -0.00529081 0
0.220732 -0.0102097 0
0.226985 -0.0112146 0
0.0930244 -0.00490185 0
0.220732 -0.0102097 0
0.109386 -0.00575871 0
0.147216 -0.00529081 0
0.220732 -0.0102097 0
0.144309 -0.00513458 0
0.214725 -0.00995539 0
0.220732 -0.0102097 0
0.109386 -0.00575871 0
0.214725 -0.00995539 0
0.123315 -0.00634191 0
0.144309 -0.00513458 0
0.214725 -0.00995539 0
0.141671 -0.00494273 0
0.208743 -0.00950765 0
0.214725 -0.00995539 0
0.123315 -0.00634191 0
0.208743 -0.00950765 0
0.135451 -0.0074732 0
0.141671 -0.00494273 0
0.208743 -0.00950765 0
0.139265 -0.0047703 0
0.202614 -0.00944015 0
0.208743 -0.00950765 0
0.135451 -0.0074732 0
0.202614 -0.00944015 0
0.146324 -0.00748454 0
0.139265 -0.0047703 0
0.202614 -0.00944015 0
0.137058 -0.00454415 0
0.19632 -0.00899859 0
0.202614 -0.00944015 0
0.146324 -0.00748454 0
0.19632 -0.00899859 0
0.15599 -0.00852391 0
0.137058 -0.00454415 0
0.19632 -0.00899859 0
0.134955 -0.00475033 0
0.190027 -0.00941118 0
0.19632 -0.00899859 0
0.15599 -0.00852391 0
0.190027 -0.00941118 0
0.16412 -0.00896532 0
0.134955 -0.00475033 0
0.190027 -0.00941118 0
0.133026 -0.00409491 0
0.18363 -0.008763 0
0.190027 -0.00941118 0
0.16412 -0.00896532 0
0.18363 -0.008763 0
0.170811 -0.0103691 0
0.133026 -0.00409491 0
0.18363 -0.008763 0
0.131479 -0.00334179 0
0.177192 -0.00756386 0
0.18363 -0.008763 0
0.170811 -0.0103691 0
0.177192 -0.00756386 0
0.176645 -0.00778068 0
0.00669144 -0.0212237 0
0.00346021 -0.0118434 0
0.0153951 -0.0228745 0
0.0107981 -0.0133936 0
0.00346021 -0.0118434 0
0.0520534 0.00337817 0
0.0107981 -0.0133936 0
0.0741487 0.00501493 0
0.0153951 -0.0228745 0
0.0107981 -0.0133936 0
0.0207685 -0.0159488 0
0.0197257 -0.00893436 0
0.0107981 -0.0133936 0
0.0741487 0.00501493 0
0.0197257 -0.00893436 0
0.0930872 0.00490282 0
0.0207685 -0.0159488 0
0.0197257 -0.00893436 0
0.0277861 -0.0132341 0
0.0251241 -0.0060128 0
0.0197257 -0.00893436 0
0.0930872 0.00490282 0
0.0251241 -0.0060128 0
0.109478 0.00576906 0
0.0277861 -0.0132341 0
0.0251241 -0.0060128 0
0.0358815 -0.0114858 0
0.0297993 -0.00414635 0
0.0251241 -0.0060128 0
0.109478 0.00576906 0
0.0297993 -0.00414635 0
0.12344 0.00636479 0
0.0358815 -0.0114858 0
0.0297993 -0.00414635 0
0.0398685 -0.00137188 0
0.0330981 -0.00071688 0
0.0297993 -0.00414635 0
0.12344 0.00636479 0
0.0330981 -0.00071688 0
0.135604 0.00751562 0
0.0398685 -0.00137188 0
0.0330981 -0.00071688 0
0.0347332 0.010462 0
0.0327135 0.00271824 0
0.0330981 -0.00071688 0
0.135604 0.00751562 0
0.0327135 0.00271824 0
0.146499 0.00752734 0
0.0347332 0.010462 0
0.0327135 0.00271824 0
0.0256187 0.00687155 0
0.0316558 0.00237661 0
0.0327135 0.00271824 0
0.146499 0.00752734 0
0.0316558 0.00237661 0
0.156188 0.00856436 0
0.0256187 0.00687155 0
0.0316558 0.00237661 0
0.0174518 0.00106876 0
0.035473 0.00025702 0
0.0316558 0.00237661 0
0.156188 0.00856436 0
0.035473 0.00025702 0
0.164336 0.00900292 0
0.0174518 0.00106876 0
0.035473 0.00025702 0
0.0112057 0.0101266 0
0.0385841 0.00696253 0
0.035473 0.00025702 0
0.164336 0.00900292 0
0.0385841 0.00696253 0
0.171036 0.0104101 0
0.0112057 0.0101266 0
0.0385841 0.00696253 0
0.0081912 0.0225368 0
0.0311067 0.0129315 0
0.0385841 0.00696253 0
0.171036 0.0104101 0
0.0311067 0.0129315 0
0.176874 0.00781114 0
0 0 0
-0.000356034 0.0145835 0
0 0 0
0.00118419 0.0138656 0
-0.000356034 0.0145835 0
-0.00157649 0.0284567 0
0.00118419 0.0138656 0
0.00273593 0.0289722 0
0 0 0
0.00118419 0.0138656 0
0 0 0
8.81853e-05 0.0126621 0
0.00118419 0.0138656 0
0.00273593 0.0289722 0
8.81853e-05 0.0126621 0
0.00658863 0.0210485 0
-0.00157649 0.0284567 0
-0.00245042 0.0266863 0
0.00273593 0.0289722 0
0.00395697 0.0260221 0
-0.00245042 0.0266863 0
-0.00176889 0.0250316 0
0.00395697 0.0260221 0
0.00667611 0.021941 0
0.00273593 0.0289722 0
0.00395697 0.0260221 0
0.00658863 0.0210485 0
0.0152532 0.0227441 0
0.00395697 0.0260221 0
0.00667611 0.021941 0
0.0152532 0.0227441 0
0.0206249 0.0158831 0
-0.0201395 -0.049712 0
-0.0426674 -0.0675779 0
-0.0094721 -0.0301762 0
-0.0304022 -0.0364778 0
-0.0426674 -0.0675779 0
-0.0672288 -0.0821777 0
-0.0304022 -0.0364778 0
-0.0615245 -0.0486369 0
-0.0094721 -0.0301762 0
-0.0304022 -0.0364778 0
0.00833332 -0.0226046 0
-0.00389765 -0.00495247 0
-0.0304022 -0.0364778 0
-0.0615245 -0.0486369 0
-0.00389765 -0.00495247 0
-0.0377506 -0.0049069 0
0.00833332 -0.0226046 0
-0.00389765 -0.00495247 0
0.0309797 -0.0129245 0
0.0290771 0.00152798 0
-0.00389765 -0.00495247 0
-0.0377506 -0.0049069 0
0.0290771 0.00152798 0
0.0459893 0.00822352 0
0.0309797 -0.0129245 0
0.0290771 0.00152798 0
0.176645 -0.00778068 0
0.181102 -0.00711078 0
0.0290771 0.00152798 0
0.0459893 0.00822352 0
0.181102 -0.00711078 0
0.182809 -0.00474414 0
-0.0672288 -0.0821777 0
-0.0802392 -0.0103187 0
-0.0615245 -0.0486369 0
-0.075783 -0.0108993 0
-0.0802392 -0.0103187 0
-0.066189 0.0577664 0
-0.075783 -0.0108993 0
-0.062433 0.025897 0
-0.0615245 -0.0486369 0
-0.075783 -0.0108993 0
-0.0377506 -0.0049069 0
-0.0428887 -0.0311154 0
-0.075783 -0.0108993 0
-0.062433 0.025897 0
-0.0428887 -0.0311154 0
-0.0388763 0.0250996 0
-0.066189 0.0577664 0
-0.0458683 0.048472 0
-0.062433 0.025897 0
-0.048003 0.0396967 0
-0.0458683 0.048472 0
-0.042291 0.0403346 0
-0.048003 0.0396967 0
-0.0328846 0.0272278 0
-0.062433 0.025897 0
-0.048003 0.0396967 0
-0.0388763 0.0250996 0
-0.0422854 0.0280246 0
-0.048003 0.0396967 0
-0.0328846 0.0272278 0
-0.0422854 0.0280246 0
-0.0225512 -0.00166967 0
-0.042291 0.0403346 0
-0.0373524 0.0271375 0
-0.0328846 0.0272278 0
-0.00162914 -0.00210199 0
-0.0373524 0.0271375 0
-0.0117859 0.0122246 0
-0.00162914 -0.00210199 0
0.0135443 -0.00656801 0
-0.0328846 0.0272278 0
-0.00162914 -0.00210199 0
-0.0225512 -0.00166967 0
-0.0230963 -0.00879293 0
-0.00162914 -0.00210199 0
0.0135443 -0.00656801 0
-0.0230963 -0.00879293 0
-0.0295883 -0.00970126 0
0 0 0
0 0 0
-0.00307819 0.00668395 0
-0.0382001 0.0341387 0
0 0 0
0 0 0
-0.0382001 0.0341387 0
-0.0375048 -0.0338061 0
-0.00307819 0.00668395 0
-0.0382001 0.0341387 0
-0.0104249 0.0269498 0
0.012585 0.0279076 0
-0.0382001 0.0341387 0
-0.0375048 -0.0338061 0
0.012585 0.0279076 0
0.0143902 -0.0297363 0
-0.0104249 0.0269498 0
0.012585 0.0279076 0
-0.0113843 0.0368931 0
0.00717279 -0.0294369 0
0.012585 0.0279076 0
0.0143902 -0.0297363 0
0.00717279 -0.0294369 0
-0.003483 0.0372031 0
-0.0113843 0.0368931 0
0.00717279 -0.0294369 0
-0.0117859 0.0122246 0
-0.00638731 -0.0308592 0
0.00717279 -0.0294369 0
-0.003483 0.0372031 0
-0.00638731 -0.0308592 0
-0.0205439 0.0667012 0
-0.0117859 0.0122246 0
-0.00638731 -0.0308592 0
0.0135443 -0.00656801 0
-0.0099822 0.00861507 0
-0.00638731 -0.0308592 0
-0.0205439 0.0667012 0
-0.0099822 0.00861507 0
-0.0207963 0.0558127 0
0.0135443 -0.00656801 0
-0.0099822 0.00861507 0
-0.0295883 -0.00970126 0
-0.0112652 0.0177059 0
-0.0099822 0.00861507 0
-0.0207963 0.0558127 0
-0.0112652 0.0177059 0
0.00984212 0.0349069 0
0 0 0
0 0 0
-0.0375048 -0.0338061 0
-0.01831 0.0103091 0
0 0 0
0 0 0
-0.01831 0.0103091 0
-0.0231765 -0.0037407 0
-0.0375048 -0.0338061 0
-0.01831 0.0103091 0
0.0143902 -0.0297363 0
-0.0292847 0.0336249 0
-0.01831 0.0103091 0
-0.0231765 -0.0037407 0
-0.0292847 0.0336249 0
-0.0441483 -0.00235454 0
0.0143902 -0.0297363 0
-0.0292847 0.0336249 0
-0.003483 0.0372031 0
-0.0283099 0.0464719 0
-0.0292847 0.0336249 0
-0.0441483 -0.00235454 0
-0.0283099 0.0464719 0
-0.0267661 0.00122365 0
-0.003483 0.0372031 0
-0.0283099 0.0464719 0
-0.0205439 0.0667012 0
-0.00355594 0.0260223 0
-0.0283099 0.0464719 0
-0.0267661 0.00122365 0
-0.00355594 0.0260223 0
0.0179488 -0.00509596 0
-0.0205439 0.0667012 0
-0.00355594 0.0260223 0
-0.0207963 0.0558127 0
-0.0160448 0.011421 0
-0.00355594 0.0260223 0
0.0179488 -0.00509596 0
-0.0160448 0.011421 0
-0.0157695 -0.0157469 0
-0.0207963 0.0558127 0
-0.0160448 0.011421 0
0.00984212 0.0349069 0
0.0204773 0.0139576 0
-0.0160448 0.011421 0
-0.0157695 -0.0157469 0
0.0204773 0.0139576 0
0.00572992 -0.00150615 0
0 0 0
0 0 0
-0.0231765 -0.0037407 0
-0.0169728 -0.00406552 0
0 0 0
0 0 0
-0.0169728 -0.00406552 0
-0.00405716 -0.0107303 0
-0.0231765 -0.0037407 0
-0.0169728 -0.00406552 0
-0.0441483 -0.00235454 0
-0.0421294 -0.0157249 0
-0.0169728 -0.00406552 0
-0.00405716 -0.0107303 0
-0.0421294 -0.0157249 0
-0.0285327 -0.0294782 0
-0.0441483 -0.00235454 0
-0.0421294 -0.0157249 0
-0.0267661 0.00122365 0
-0.030322 -0.017858 0
-0.0421294 -0.0157249 0
-0.0285327 -0.0294782 0
-0.030322 -0.017858 0
-0.0309649 -0.0424006 0
-0.0267661 0.00122365 0
-0.030322 -0.017858 0
0.0179488 -0.00509596 0
0.0101546 0.00124387 0
-0.030322 -0.017858 0
-0.0309649 -0.0424006 0
0.0101546 0.00124387 0
-0.0108008 -0.0363845 0
0.0179488 -0.00509596 0
0.0101546 0.00124387 0
-0.0157695 -0.0157469 0
-0.00397744 0.00720222 0
0.0101546 0.00124387 0
-0.0108008 -0.0363845 0
-0.00397744 0.00720222 0
-0.000696949 -0.0217657 0
-0.0157695 -0.0157469 0
-0.00397744 0.00720222 0
0.00572992 -0.00150615 0
0.00163764 -0.0167207 0
-0.00397744 0.00720222 0
-0.000696949 -0.0217657 0
0.00163764 -0.0167207 0
0.00280618 -0.00325558 0
0 0 0
0 0 0
-0.00405716 -0.0107303 0
0.00265473 0.00292116 0
0 0 0
0 0 0
0.00265473 0.00292116 0
0 0 0
-0.00405716 -0.0107303 0
0.00265473 0.00292116 0
-0.0285327 -0.0294782 0
-0.0107226 -0.00678129 0
0.00265473 0.00292116 0
0 0 0
-0.0107226 -0.00678129 0
0 0 0
-0.0285327 -0.0294782 0
-0.0107226 -0.00678129 0
-0.0309649 -0.0424006 0
-0.0132769 -0.0353357 0
-0.0107226 -0.00678129 0
0 0 0
-0.0132769 -0.0353357 0
0 0 0
-0.0309649 -0.0424006 0
-0.0132769 -0.0353357 0
-0.0108008 -0.0363845 0
-0.00998772 -0.0627697 0
-0.0132769 -0.0353357 0
0 0 0
-0.00998772 -0.0627697 0
0 0 0
-0.0108008 -0.0363845 0
-0.00998772 -0.0627697 0
-0.000696949 -0.0217657 0
-0.00206504 -0.0769832 0
-0.00998772 -0.0627697 0
0 0 0
-0.00206504 -0.0769832 0
0 0 0
-0.000696949 -0.0217657 0
-0.00206504 -0.0769832 0
0.00280618 -0.00325558 0
-0.00532744 -0.0856209 0
-0.00206504 -0.0769832 0
0 0 0
-0.00532744 -0.0856209 0
0 0 0
0.176874 0.00781114 0
0.176917 0.00757664 0
0.181333 0.00714003 0
0.171483 0.00572473 0
0.176917 0.00757664 0
0.131273 0.00334376 0
0.171483 0.00572473 0
0.130105 0.002601 0
0.181333 0.00714003 0
0.171483 0.00572473 0
0.18303 0.00475982 0
0.168213 0.00373325 0
0.171483 0.00572473 0
0.130105 0.002601 0
0.168213 0.00373325 0
0.128979 0.00183359 0
0.166084 0.00680946 0
0.107246 0.00597662 0
0.162022 0.00665902 0
0.109832 0.00578304 0
0.107246 0.00597662 0
0.2279 5.55435e-06 0
0.109832 0.00578304 0
0.215301 5.23841e-06 0
0.162022 0.00665902 0
0.109832 0.00578304 0
0.157974 0.00658844 0
0.111982 0.00528669 0
0.109832 0.00578304 0
0.215301 5.23841e-06 0
0.111982 0.00528669 0
0.2038 5.05618e-06 0
0.157974 0.00658844 0
0.111982 0.00528669 0
0.153845 0.0062317 0
0.113954 0.00503658 0
0.111982 0.00528669 0
0.2038 5.05618e-06 0
0.113954 0.00503658 0
0.193207 4.92597e-06 0
0.153845 0.0062317 0
0.113954 0.00503658 0
0.150175 0.00567055 0
0.115668 0.00455952 0
0.113954 0.00503658 0
0.193207 4.92597e-06 0
0.115668 0.00455952 0
0.18351 5.34949e-06 0
0.150175 0.00567055 0
0.115668 0.00455952 0
0.146962 0.00529138 0
0.117096 0.00432603 0
0.115668 0.00455952 0
0.18351 5.34949e-06 0
0.117096 0.00432603 0
0.174726 5.78809e-06 0
0.146962 0.00529138 0
0.117096 0.00432603 0
0.144058 0.00513927 0
0.118206 0.00391959 0
0.117096 0.00432603 0
0.174726 5.78809e-06 0
0.118206 0.00391959 0
0.166853 6.14886e-06 0
0.144058 0.00513927 0
0.118206 0.00391959 0
0.141424 0.00495056 0
0.118954 0.00386315 0
0.118206 0.00391959 0
0.166853 6.14886e-06 0
0.118954 0.00386315 0
0.159799 6.7148e-06 0
0.141424 0.00495056 0
0.118954 0.00386315 0
0.139021 0.00477914 0
0.119354 0.00344569 0
0.118954 0.00386315 0
0.159799 6.7148e-06 0
0.119354 0.00344569 0
0.153426 6.49817e-06 0
0.139021 0.00477914 0
0.119354 0.00344569 0
0.136821 0.00455207 0
0.119405 0.00346182 0
0.119354 0.00344569 0
0.153426 6.49817e-06 0
0.119405 0.00346182 0
0.147718 7.47286e-06 0
0.136821 0.00455207 0
0.119405 0.00346182 0
0.134725 0.00475941 0
0.119173 0.00309813 0
0.119405 0.00346182 0
0.147718 7.47286e-06 0
0.119173 0.00309813 0
0.142684 6.88631e-06 0
0.134725 0.00475941 0
0.119173 0.00309813 0
0.132808 0.00409806 0
0.11881 0.00309627 0
0.119173 0.00309813 0
0.142684 6.88631e-06 0
0.11881 0.00309627 0
0.138173 5.33274e-06 0
0.132808 0.00409806 0
0.11881 0.00309627 0
0.131273 0.00334376 0
0.118491 0.00236435 0
0.11881 0.00309627 0
0.138173 5.33274e-06 0