# vtk DataFile Version 3.0
#This file was generated by the deal.II library on 2026/3/26 at 11:20:51
ASCII
DATASET UNSTRUCTURED_GRID

POINTS 3648 double
0 0 0
0.214286 0 0
0 0.25 0
0.214286 0.25 0
0 0.25 0
0.214286 0.25 0
0 0.5 0
0.214286 0.5 0
0.214286 0 0
0.428571 0 0
0.214286 0.25 0
0.428571 0.25 0
0.214286 0.25 0
0.428571 0.25 0
0.214286 0.5 0
0.428571 0.5 0
0.428571 0 0
0.642857 0 0
0.428571 0.25 0
0.642857 0.25 0
0.428571 0.25 0
0.642857 0.25 0
0.428571 0.5 0
0.642857 0.5 0
0.428571 0.5 0
0.642857 0.5 0
0.428571 0.75 0
0.642857 0.75 0
0.642857 0 0
0.857143 0 0
0.642857 0.25 0
0.857143 0.25 0
0.642857 0.25 0
0.857143 0.25 0
0.642857 0.5 0
0.857143 0.5 0
0.642857 0.5 0
0.857143 0.5 0
0.642857 0.75 0
0.857143 0.75 0
0.857143 0 0
1.07143 0 0
0.857143 0.25 0
1.07143 0.25 0
0.857143 0.25 0
1.07143 0.25 0
0.857143 0.5 0
1.07143 0.5 0
0.857143 0.5 0
1.07143 0.5 0
0.857143 0.75 0
1.07143 0.75 0
1.07143 0 0
1.28571 0 0
1.07143 0.25 0
1.28571 0.25 0
1.07143 0.25 0
1.28571 0.25 0
1.07143 0.5 0
1.28571 0.5 0
1.07143 0.5 0
1.28571 0.5 0
1.07143 0.75 0
1.28571 0.75 0
1.28571 0 0
1.5 0 0
1.28571 0.25 0
1.5 0.25 0
1.28571 0.25 0
1.5 0.25 0
1.28571 0.5 0
1.5 0.5 0
1.5 0 0
1.71429 0 0
1.5 0.25 0
1.71429 0.25 0
1.5 0.25 0
1.71429 0.25 0
1.5 0.5 0
1.71429 0.5 0
1.71429 0 0
1.92857 0 0
1.71429 0.25 0
1.92857 0.25 0
1.71429 0.25 0
1.92857 0.25 0
1.71429 0.5 0
1.92857 0.5 0
1.92857 0 0
2.14286 0 0
1.92857 0.25 0
2.14286 0.25 0
1.92857 0.25 0
2.14286 0.25 0
1.92857 0.5 0
2.14286 0.5 0
0 3 0
0 2.75 0
0.214286 3 0
0.214286 2.75 0
0.214286 3 0
0.214286 2.75 0
0.428571 3 0
0.428571 2.75 0
0.428571 3 0
0.428571 2.75 0
0.642857 3 0
0.642857 2.75 0
0.642857 3 0
0.642857 2.75 0
0.857143 3 0
0.857143 2.75 0
0.857143 3 0
0.857143 2.75 0
1.07143 3 0
1.07143 2.75 0
1.07143 3 0
1.07143 2.75 0
1.28571 3 0
1.28571 2.75 0
1.28571 3 0
1.28571 2.75 0
1.5 3 0
1.5 2.75 0
1.5 3 0
1.5 2.75 0
1.71429 3 0
1.71429 2.75 0
1.71429 3 0
1.71429 2.75 0
1.92857 3 0
1.92857 2.75 0
1.92857 3 0
1.92857 2.75 0
2.14286 3 0
2.14286 2.75 0
0 2.75 0
0 2.5 0
0.214286 2.75 0
0.214286 2.5 0
0.214286 2.75 0
0.214286 2.5 0
0.428571 2.75 0
0.428571 2.5 0
0.428571 2.75 0
0.428571 2.5 0
0.642857 2.75 0
0.642857 2.5 0
0.642857 2.75 0
0.642857 2.5 0
0.857143 2.75 0
0.857143 2.5 0
0.857143 2.75 0
0.857143 2.5 0
1.07143 2.75 0
1.07143 2.5 0
1.07143 2.75 0
1.07143 2.5 0
1.28571 2.75 0
1.28571 2.5 0
1.28571 2.75 0
1.28571 2.5 0
1.5 2.75 0
1.5 2.5 0
1.5 2.75 0
1.5 2.5 0
1.71429 2.75 0
1.71429 2.5 0
1.71429 2.75 0
1.71429 2.5 0
1.92857 2.75 0
1.92857 2.5 0
1.92857 2.75 0
1.92857 2.5 0
2.14286 2.75 0
2.14286 2.5 0
0.428571 2.5 0
0.428571 2.25 0
0.642857 2.5 0
0.642857 2.25 0
0.642857 2.5 0
0.642857 2.25 0
0.857143 2.5 0
0.857143 2.25 0
0.857143 2.5 0
0.857143 2.25 0
1.07143 2.5 0
1.07143 2.25 0
1.07143 2.5 0
1.07143 2.25 0
1.28571 2.5 0
1.28571 2.25 0
0.214286 0.75 0
0.321429 0.75 0
0.214286 0.875 0
0.321429 0.875 0
0.321429 0.75 0
0.428571 0.75 0
0.321429 0.875 0
0.428571 0.875 0
0.214286 0.875 0
0.321429 0.875 0
0.214286 1 0
0.321429 1 0
0.321429 0.875 0
0.428571 0.875 0
0.321429 1 0
0.428571 1 0
0.428571 0.75 0
0.535714 0.75 0
0.428571 0.875 0
0.535714 0.875 0
0.535714 0.75 0
0.642857 0.75 0
0.535714 0.875 0
0.642857 0.875 0
0.428571 0.875 0
0.535714 0.875 0
0.428571 1 0
0.535714 1 0
0.535714 0.875 0
0.642857 0.875 0
0.535714 1 0
0.642857 1 0
0.642857 0.75 0
0.75 0.75 0
0.642857 0.875 0
0.75 0.875 0
0.75 0.75 0
0.857143 0.75 0
0.75 0.875 0
0.857143 0.875 0
0.642857 0.875 0
0.75 0.875 0
0.642857 1 0
0.75 1 0
0.75 0.875 0
0.857143 0.875 0
0.75 1 0
0.857143 1 0
0.857143 0.75 0
0.964286 0.75 0
0.857143 0.875 0
0.964286 0.875 0
0.964286 0.75 0
1.07143 0.75 0
0.964286 0.875 0
1.07143 0.875 0
0.857143 0.875 0
0.964286 0.875 0
0.857143 1 0
0.964286 1 0
0.964286 0.875 0
1.07143 0.875 0
0.964286 1 0
1.07143 1 0
1.07143 0.75 0
1.17857 0.75 0
1.07143 0.875 0
1.17857 0.875 0
1.17857 0.75 0
1.28571 0.75 0
1.17857 0.875 0
1.28571 0.875 0
1.07143 0.875 0
1.17857 0.875 0
1.07143 1 0
1.17857 1 0
1.17857 0.875 0
1.28571 0.875 0
1.17857 1 0
1.28571 1 0
0.214286 2 0
0.214286 1.875 0
0.321429 2 0
0.321429 1.875 0
0.214286 1.875 0
0.214286 1.75 0
0.321429 1.875 0
0.321429 1.75 0
0.321429 2 0
0.321429 1.875 0
0.428571 2 0
0.428571 1.875 0
0.321429 1.875 0
0.321429 1.75 0
0.428571 1.875 0
0.428571 1.75 0
0.428571 2 0
0.428571 1.875 0
0.535714 2 0
0.535714 1.875 0
0.428571 1.875 0
0.428571 1.75 0
0.535714 1.875 0
0.535714 1.75 0
0.535714 2 0
0.535714 1.875 0
0.642857 2 0
0.642857 1.875 0
0.535714 1.875 0
0.535714 1.75 0
0.642857 1.875 0
0.642857 1.75 0
0.642857 2 0
0.642857 1.875 0
0.75 2 0
0.75 1.875 0
0.642857 1.875 0
0.642857 1.75 0
0.75 1.875 0
0.75 1.75 0
0.75 2 0
0.75 1.875 0
0.857143 2 0
0.857143 1.875 0
0.75 1.875 0
0.75 1.75 0
0.857143 1.875 0
0.857143 1.75 0
0.857143 2 0
0.857143 1.875 0
0.964286 2 0
0.964286 1.875 0
0.857143 1.875 0
0.857143 1.75 0
0.964286 1.875 0
0.964286 1.75 0
0.964286 2 0
0.964286 1.875 0
1.07143 2 0
1.07143 1.875 0
0.964286 1.875 0
0.964286 1.75 0
1.07143 1.875 0
1.07143 1.75 0
1.07143 2 0
1.07143 1.875 0
1.17857 2 0
1.17857 1.875 0
1.07143 1.875 0
1.07143 1.75 0
1.17857 1.875 0
1.17857 1.75 0
1.17857 2 0
1.17857 1.875 0
1.28571 2 0
1.28571 1.875 0
1.17857 1.875 0
1.17857 1.75 0
1.28571 1.875 0
1.28571 1.75 0
0.214286 1.25 0
0.214286 1.125 0
0.321429 1.25 0
0.321429 1.125 0
0.214286 1.125 0
0.214286 1 0
0.321429 1.125 0
0.321429 1 0
0.321429 1.25 0
0.321429 1.125 0
0.428571 1.25 0
0.428571 1.125 0
0.321429 1.125 0
0.321429 1 0
0.428571 1.125 0
0.428571 1 0
0.428571 1.25 0
0.428571 1.125 0
0.535714 1.25 0
0.535714 1.125 0
0.428571 1.125 0
0.428571 1 0
0.535714 1.125 0
0.535714 1 0
0.535714 1.25 0
0.535714 1.125 0
0.642857 1.25 0
0.642857 1.125 0
0.535714 1.125 0
0.535714 1 0
0.642857 1.125 0
0.642857 1 0
0.642857 1.25 0
0.642857 1.125 0
0.75 1.25 0
0.75 1.125 0
0.642857 1.125 0
0.642857 1 0
0.75 1.125 0
0.75 1 0
0.75 1.25 0
0.75 1.125 0
0.857143 1.25 0
0.857143 1.125 0
0.75 1.125 0
0.75 1 0
0.857143 1.125 0
0.857143 1 0
0.857143 1.25 0
0.857143 1.125 0
0.964286 1.25 0
0.964286 1.125 0
0.857143 1.125 0
0.857143 1 0
0.964286 1.125 0
0.964286 1 0
0.964286 1.25 0
0.964286 1.125 0
1.07143 1.25 0
1.07143 1.125 0
0.964286 1.125 0
0.964286 1 0
1.07143 1.125 0
1.07143 1 0
1.07143 1.25 0
1.07143 1.125 0
1.17857 1.25 0
1.17857 1.125 0
1.07143 1.125 0
1.07143 1 0
1.17857 1.125 0
1.17857 1 0
1.17857 1.25 0
1.17857 1.125 0
1.28571 1.25 0
1.28571 1.125 0
1.17857 1.125 0
1.17857 1 0
1.28571 1.125 0
1.28571 1 0
0.214286 2.25 0
0.214286 2.125 0
0.321429 2.25 0
0.321429 2.125 0
0.214286 2.125 0
0.214286 2 0
0.321429 2.125 0
0.321429 2 0
0.321429 2.25 0
0.321429 2.125 0
0.428571 2.25 0
0.428571 2.125 0
0.321429 2.125 0
0.321429 2 0
0.428571 2.125 0
0.428571 2 0
0.428571 2.25 0
0.428571 2.125 0
0.535714 2.25 0
0.535714 2.125 0
0.428571 2.125 0
0.428571 2 0
0.535714 2.125 0
0.535714 2 0
0.535714 2.25 0
0.535714 2.125 0
0.642857 2.25 0
0.642857 2.125 0
0.535714 2.125 0
0.535714 2 0
0.642857 2.125 0
0.642857 2 0
0.642857 2.25 0
0.642857 2.125 0
0.75 2.25 0
0.75 2.125 0
0.642857 2.125 0
0.642857 2 0
0.75 2.125 0
0.75 2 0
0.75 2.25 0
0.75 2.125 0
0.857143 2.25 0
0.857143 2.125 0
0.75 2.125 0
0.75 2 0
0.857143 2.125 0
0.857143 2 0
0.857143 2.25 0
0.857143 2.125 0
0.964286 2.25 0
0.964286 2.125 0
0.857143 2.125 0
0.857143 2 0
0.964286 2.125 0
0.964286 2 0
0.964286 2.25 0
0.964286 2.125 0
1.07143 2.25 0
1.07143 2.125 0
0.964286 2.125 0
0.964286 2 0
1.07143 2.125 0
1.07143 2 0
1.07143 2.25 0
1.07143 2.125 0
1.17857 2.25 0
1.17857 2.125 0
1.07143 2.125 0
1.07143 2 0
1.17857 2.125 0
1.17857 2 0
1.17857 2.25 0
1.17857 2.125 0
1.28571 2.25 0
1.28571 2.125 0
1.17857 2.125 0
1.17857 2 0
1.28571 2.125 0
1.28571 2 0
0 0.5 0
0.107143 0.5 0
0 0.625 0
0.107143 0.625 0
0.107143 0.5 0
0.214286 0.5 0
0.107143 0.625 0
0.214286 0.625 0
0 0.625 0
0.107143 0.625 0
0 0.75 0
0.107143 0.75 0
0.107143 0.625 0
0.214286 0.625 0
0.107143 0.75 0
0.214286 0.75 0
0.214286 0.5 0
0.321429 0.5 0
0.214286 0.625 0
0.321429 0.625 0
0.321429 0.5 0
0.428571 0.5 0
0.321429 0.625 0
0.428571 0.625 0
0.214286 0.625 0
0.321429 0.625 0
0.214286 0.75 0
0.321429 0.75 0
0.321429 0.625 0
0.428571 0.625 0
0.321429 0.75 0
0.428571 0.75 0
1.28571 0.5 0
1.39286 0.5 0
1.28571 0.625 0
1.39286 0.625 0
1.39286 0.5 0
1.5 0.5 0
1.39286 0.625 0
1.5 0.625 0
1.28571 0.625 0
1.39286 0.625 0
1.28571 0.75 0
1.39286 0.75 0
1.39286 0.625 0
1.5 0.625 0
1.39286 0.75 0
1.5 0.75 0
1.28571 0.75 0
1.39286 0.75 0
1.28571 0.875 0
1.39286 0.875 0
1.39286 0.75 0
1.5 0.75 0
1.39286 0.875 0
1.5 0.875 0
1.28571 0.875 0
1.39286 0.875 0
1.28571 1 0
1.39286 1 0
1.39286 0.875 0
1.5 0.875 0
1.39286 1 0
1.5 1 0
1.5 0.5 0
1.60714 0.5 0
1.5 0.625 0
1.60714 0.625 0
1.60714 0.5 0
1.71429 0.5 0
1.60714 0.625 0
1.71429 0.625 0
1.5 0.625 0
1.60714 0.625 0
1.5 0.75 0
1.60714 0.75 0
1.60714 0.625 0
1.71429 0.625 0
1.60714 0.75 0
1.71429 0.75 0
1.71429 0.5 0
1.82143 0.5 0
1.71429 0.625 0
1.82143 0.625 0
1.82143 0.5 0
1.92857 0.5 0
1.82143 0.625 0
1.92857 0.625 0
1.71429 0.625 0
1.82143 0.625 0
1.71429 0.75 0
1.82143 0.75 0
1.82143 0.625 0
1.92857 0.625 0
1.82143 0.75 0
1.92857 0.75 0
1.92857 0.5 0
2.03571 0.5 0
1.92857 0.625 0
2.03571 0.625 0
2.03571 0.5 0
2.14286 0.5 0
2.03571 0.625 0
2.14286 0.625 0
1.92857 0.625 0
2.03571 0.625 0
1.92857 0.75 0
2.03571 0.75 0
2.03571 0.625 0
2.14286 0.625 0
2.03571 0.75 0
2.14286 0.75 0
2.14286 0 0
2.25 0 0
2.14286 0.125 0
2.25 0.125 0
2.25 0 0
2.35714 0 0
2.25 0.125 0
2.35714 0.125 0
2.14286 0.125 0
2.25 0.125 0
2.14286 0.25 0
2.25 0.25 0
2.25 0.125 0
2.35714 0.125 0
2.25 0.25 0
2.35714 0.25 0
2.14286 0.25 0
2.25 0.25 0
2.14286 0.375 0
2.25 0.375 0
2.25 0.25 0
2.35714 0.25 0
2.25 0.375 0
2.35714 0.375 0
2.14286 0.375 0
2.25 0.375 0
2.14286 0.5 0
2.25 0.5 0
2.25 0.375 0
2.35714 0.375 0
2.25 0.5 0
2.35714 0.5 0
2.14286 0.5 0
2.25 0.5 0
2.14286 0.625 0
2.25 0.625 0
2.25 0.5 0
2.35714 0.5 0
2.25 0.625 0
2.35714 0.625 0
2.14286 0.625 0
2.25 0.625 0
2.14286 0.75 0
2.25 0.75 0
2.25 0.625 0
2.35714 0.625 0
2.25 0.75 0
2.35714 0.75 0
2.35714 0 0
2.46429 0 0
[...]
POINT_DATA 3648
VECTORS velocity double
0 0 0
0 0 0
0 0 0
-0.0115765 0.013027 0
0 0 0
-0.0115765 0.013027 0
0 0 0
-0.00160039 0.0285498 0
0 0 0
0 0 0
-0.0115765 0.013027 0
-0.0344275 0.013412 0
-0.0115765 0.013027 0
-0.0344275 0.013412 0
-0.00160039 0.0285498 0
-0.00180112 0.0251405 0
0 0 0
0 0 0
-0.0344275 0.013412 0
-0.052542 0.00811887 0
-0.0344275 0.013412 0
-0.052542 0.00811887 0
-0.00180112 0.0251405 0
-0.00274879 0.0186755 0
-0.00180112 0.0251405 0
-0.00274879 0.0186755 0
0.0206906 0.0159539 0
0.0359497 0.0116996 0
0 0 0
0 0 0
-0.052542 0.00811887 0
-0.0588212 -0.000461187 0
-0.052542 0.00811887 0
-0.0588212 -0.000461187 0
-0.00274879 0.0186755 0
0.00319058 -0.0117088 0
-0.00274879 0.0186755 0
0.00319058 -0.0117088 0
0.0359497 0.0116996 0
0.0349348 -0.0103759 0
0 0 0
0 0 0
-0.0588212 -0.000461187 0
-0.0486171 -0.0111166 0
-0.0588212 -0.000461187 0
-0.0486171 -0.0111166 0
0.00319058 -0.0117088 0
0.00719451 -0.0162884 0
0.00319058 -0.0117088 0
0.00719451 -0.0162884 0
0.0349348 -0.0103759 0
0.0176544 -0.00116719 0
0 0 0
0 0 0
-0.0486171 -0.0111166 0
-0.00765831 -0.0389544 0
-0.0486171 -0.0111166 0
-0.00765831 -0.0389544 0
0.00719451 -0.0162884 0
-0.0202291 -0.0497433 0
0.00719451 -0.0162884 0
-0.0202291 -0.0497433 0
0.0176544 -0.00116719 0
0.0083169 -0.0225895 0
0 0 0
0 0 0
-0.00765831 -0.0389544 0
0.0725326 -0.0557409 0
-0.00765831 -0.0389544 0
0.0725326 -0.0557409 0
-0.0202291 -0.0497433 0
-0.0670728 -0.0820408 0
0 0 0
0 0 0
0.0725326 -0.0557409 0
0.0815176 0.0455886 0
0.0725326 -0.0557409 0
0.0815176 0.0455886 0
-0.0670728 -0.0820408 0
-0.0659333 0.0577617 0
0 0 0
0 0 0
0.0815176 0.0455886 0
0.0279279 0.0167124 0
0.0815176 0.0455886 0
0.0279279 0.0167124 0
-0.0659333 0.0577617 0
-0.0422167 0.040204 0
0 0 0
0 0 0
0.0279279 0.0167124 0
-0.0105578 0.0269682 0
0.0279279 0.0167124 0
-0.0105578 0.0269682 0
-0.0422167 0.040204 0
-0.0116767 0.0123048 0
0 0 0
0 0 0
0 0 0
-0.0116807 -0.0131423 0
0 0 0
-0.0116807 -0.0131423 0
0 0 0
-0.0346914 -0.013479 0
0 0 0
-0.0346914 -0.013479 0
0 0 0
-0.0527808 -0.00803316 0
0 0 0
-0.0527808 -0.00803316 0
0 0 0
-0.0588826 0.00057273 0
0 0 0
-0.0588826 0.00057273 0
0 0 0
-0.0486029 0.0110959 0
0 0 0
-0.0486029 0.0110959 0
0 0 0
-0.00755759 0.0390984 0
0 0 0
-0.00755759 0.0390984 0
0 0 0
0.0726796 0.0556518 0
0 0 0
0.0726796 0.0556518 0
0 0 0
0.0815905 -0.0455727 0
0 0 0
0.0815905 -0.0455727 0
0 0 0
0.0280675 -0.0166646 0
0 0 0
0.0280675 -0.0166646 0
0 0 0
-0.0104784 -0.0270764 0
0 0 0
0 0 0
-0.0116807 -0.0131423 0
-0.00161731 -0.0288103 0
-0.0116807 -0.0131423 0
-0.00161731 -0.0288103 0
-0.0346914 -0.013479 0
-0.00178162 -0.0252112 0
-0.0346914 -0.013479 0
-0.00178162 -0.0252112 0
-0.0527808 -0.00803316 0
-0.00268329 -0.0185008 0
-0.0527808 -0.00803316 0
-0.00268329 -0.0185008 0
-0.0588826 0.00057273 0
0.00330639 0.0120096 0
-0.0588826 0.00057273 0
0.00330639 0.0120096 0
-0.0486029 0.0110959 0
0.00739055 0.0162546 0
-0.0486029 0.0110959 0
0.00739055 0.0162546 0
-0.00755759 0.0390984 0
-0.0202325 0.0497669 0
-0.00755759 0.0390984 0
-0.0202325 0.0497669 0
0.0726796 0.0556518 0
-0.0671213 0.0820466 0
0.0726796 0.0556518 0
-0.0671213 0.0820466 0
0.0815905 -0.0455727 0
-0.0659004 -0.0577987 0
0.0815905 -0.0455727 0
-0.0659004 -0.0577987 0
0.0280675 -0.0166646 0
-0.0422159 -0.040077 0
0.0280675 -0.0166646 0
-0.0422159 -0.040077 0
-0.0104784 -0.0270764 0
-0.0116797 -0.012555 0
-0.00178162 -0.0252112 0
0.0208482 -0.0160328 0
-0.00268329 -0.0185008 0
0.036048 -0.0115333 0
-0.00268329 -0.0185008 0
0.036048 -0.0115333 0
0.00330639 0.0120096 0
0.0348963 0.0105711 0
0.00330639 0.0120096 0
0.0348963 0.0105711 0
0.00739055 0.0162546 0
0.0174273 0.00109269 0
0.00739055 0.0162546 0
0.0174273 0.00109269 0
-0.0202325 0.0497669 0
0.00818874 0.0225468 0
0.00663726 0.0211311 0
0.0153161 0.0228201 0
0.00344761 0.0117928 0
0.0107389 0.0133805 0
0.0153161 0.0228201 0
0.0206906 0.0159539 0
0.0107389 0.0133805 0
0.0196486 0.00891817 0
0.00344761 0.0117928 0
0.0107389 0.0133805 0
0.0520479 -0.00336657 0
0.074124 -0.00501102 0
0.0107389 0.0133805 0
0.0196486 0.00891817 0
0.074124 -0.00501102 0
0.0930423 -0.00488767 0
0.0206906 0.0159539 0
0.0277836 0.0133359 0
0.0196486 0.00891817 0
0.0250524 0.00604165 0
0.0277836 0.0133359 0
0.0359497 0.0116996 0
0.0250524 0.00604165 0
0.0298201 0.00424324 0
0.0196486 0.00891817 0
0.0250524 0.00604165 0
0.0930423 -0.00488767 0
0.109412 -0.00574981 0
0.0250524 0.00604165 0
0.0298201 0.00424324 0
0.109412 -0.00574981 0
0.12335 -0.00633523 0
0.0359497 0.0116996 0
0.0400029 0.00153552 0
0.0298201 0.00424324 0
0.0332323 0.00079152 0
0.0400029 0.00153552 0
0.0349348 -0.0103759 0
0.0332323 0.00079152 0
0.0328995 -0.00267421 0
0.0298201 0.00424324 0
0.0332323 0.00079152 0
0.12335 -0.00633523 0
0.135495 -0.00748149 0
0.0332323 0.00079152 0
0.0328995 -0.00267421 0
0.135495 -0.00748149 0
0.146378 -0.00748819 0
0.0349348 -0.0103759 0
0.0258554 -0.0068891 0
0.0328995 -0.00267421 0
0.0318314 -0.00237356 0
0.0258554 -0.0068891 0
0.0176544 -0.00116719 0
0.0318314 -0.00237356 0
0.0355983 -0.000269212 0
0.0328995 -0.00267421 0
0.0318314 -0.00237356 0
0.146378 -0.00748819 0
0.156061 -0.00853632 0
0.0318314 -0.00237356 0
0.0355983 -0.000269212 0
0.156061 -0.00853632 0
0.164207 -0.00898228 0
0.0176544 -0.00116719 0
0.0113537 -0.0101925 0
0.0355983 -0.000269212 0
0.0386553 -0.00697865 0
0.0113537 -0.0101925 0
0.0083169 -0.0225895 0
0.0386553 -0.00697865 0
0.0311304 -0.0129397 0
0.0355983 -0.000269212 0
0.0386553 -0.00697865 0
0.164207 -0.00898228 0
0.170914 -0.0104049 0
0.0386553 -0.00697865 0
0.0311304 -0.0129397 0
0.170914 -0.0104049 0
0.176766 -0.00780367 0
0.0520385 0.00336907 0
0.240791 0.0132485 0
0.0741316 0.00500345 0
0.23373 0.0122571 0
0.240791 0.0132485 0
0.157745 0.00657446 0
0.23373 0.0122571 0
0.153653 0.00621913 0
0.0741316 0.00500345 0
0.23373 0.0122571 0
0.0930707 0.00487915 0
0.227112 0.0111927 0
0.23373 0.0122571 0
0.153653 0.00621913 0
0.227112 0.0111927 0
0.150018 0.00565764 0
0.0930707 0.00487915 0
0.227112 0.0111927 0
0.109464 0.005751 0
0.220825 0.0101936 0
0.227112 0.0111927 0
0.150018 0.00565764 0
0.220825 0.0101936 0
0.146837 0.00528164 0
0.109464 0.005751 0
0.220825 0.0101936 0
0.123429 0.00634916 0
0.214779 0.00996139 0
0.220825 0.0101936 0
0.146837 0.00528164 0
0.214779 0.00996139 0
0.143963 0.00513357 0
0.123429 0.00634916 0
0.214779 0.00996139 0
0.135598 0.00751692 0
0.208749 0.00952336 0
0.214779 0.00996139 0
0.143963 0.00513357 0
0.208749 0.00952336 0
0.141353 0.00494891 0
0.135598 0.00751692 0
0.208749 0.00952336 0
0.146501 0.00752258 0
0.202564 0.00946675 0
0.208749 0.00952336 0
0.141353 0.00494891 0
0.202564 0.00946675 0
0.138971 0.00477797 0
0.146501 0.00752258 0
0.202564 0.00946675 0
0.156205 0.00856964 0
0.19621 0.00902107 0
0.202564 0.00946675 0
0.138971 0.00477797 0
0.19621 0.00902107 0
0.136788 0.00455441 0
0.156205 0.00856964 0
0.19621 0.00902107 0
0.164368 0.00901347 0
0.18986 0.00944939 0
0.19621 0.00902107 0
0.136788 0.00455441 0
0.18986 0.00944939 0
0.134706 0.00476982 0
0.164368 0.00901347 0
0.18986 0.00944939 0
0.171083 0.0104424 0
0.183407 0.00879403 0
0.18986 0.00944939 0
0.134706 0.00476982 0
0.183407 0.00879403 0
0.132798 0.00410816 0
0.171083 0.0104424 0
0.183407 0.00879403 0
0.176941 0.00782579 0
0.176908 0.00759736 0
0.183407 0.00879403 0
0.132798 0.00410816 0
0.176908 0.00759736 0
0.131271 0.00335305 0
0.157937 -0.00658436 0
0.240705 -0.0132508 0
0.153835 -0.00622839 0
0.233662 -0.012264 0
0.240705 -0.0132508 0
0.0520479 -0.00336657 0
0.233662 -0.012264 0
0.074124 -0.00501102 0
0.153835 -0.00622839 0
0.233662 -0.012264 0
0.150191 -0.00566385 0
0.227059 -0.0111972 0
0.233662 -0.012264 0
0.074124 -0.00501102 0
0.227059 -0.0111972 0
0.0930423 -0.00488767 0
0.150191 -0.00566385 0
0.227059 -0.0111972 0
0.147002 -0.00528333 0
0.220788 -0.0101914 0
0.227059 -0.0111972 0
0.0930423 -0.00488767 0
0.220788 -0.0101914 0
0.109412 -0.00574981 0
0.147002 -0.00528333 0
0.220788 -0.0101914 0
0.144122 -0.00513072 0
0.214764 -0.00994683 0
0.220788 -0.0101914 0
0.109412 -0.00574981 0
0.214764 -0.00994683 0
0.12335 -0.00633523 0
0.144122 -0.00513072 0
0.214764 -0.00994683 0
0.141507 -0.0049424 0
0.208764 -0.00950229 0
0.214764 -0.00994683 0
0.12335 -0.00633523 0
0.208764 -0.00950229 0
0.135495 -0.00748149 0
0.141507 -0.0049424 0
0.208764 -0.00950229 0
0.139121 -0.00477067 0
0.202615 -0.00944197 0
0.208764 -0.00950229 0
0.135495 -0.00748149 0
0.202615 -0.00944197 0
0.146378 -0.00748819 0
0.139121 -0.00477067 0
0.202615 -0.00944197 0
0.136932 -0.004547 0
0.196297 -0.0090007 0
0.202615 -0.00944197 0
0.146378 -0.00748819 0
0.196297 -0.0090007 0
0.156061 -0.00853632 0
0.136932 -0.004547 0
0.196297 -0.0090007 0
0.134842 -0.00476081 0
0.189981 -0.00942872 0
0.196297 -0.0090007 0
0.156061 -0.00853632 0
0.189981 -0.00942872 0
0.164207 -0.00898228 0
0.134842 -0.00476081 0
0.189981 -0.00942872 0
0.132925 -0.00410509 0
0.183559 -0.00878013 0
0.189981 -0.00942872 0
0.164207 -0.00898228 0
0.183559 -0.00878013 0
0.170914 -0.0104049 0
0.132925 -0.00410509 0
0.183559 -0.00878013 0
0.131385 -0.00335223 0
0.177093 -0.00758726 0
0.183559 -0.00878013 0
0.170914 -0.0104049 0
0.177093 -0.00758726 0
0.176766 -0.00780367 0
0.00674983 -0.0213251 0
0.00349721 -0.0118871 0
0.015472 -0.022969 0
0.0109028 -0.0134461 0
0.00349721 -0.0118871 0
0.0520385 0.00336907 0
0.0109028 -0.0134461 0
0.0741316 0.00500345 0
0.015472 -0.022969 0
0.0109028 -0.0134461 0
0.0208482 -0.0160328 0
0.0198907 -0.0089879 0
0.0109028 -0.0134461 0
0.0741316 0.00500345 0
0.0198907 -0.0089879 0
0.0930707 0.00487915 0
0.0208482 -0.0160328 0
0.0198907 -0.0089879 0
0.0278948 -0.0132928 0
0.0253168 -0.00603626 0
0.0198907 -0.0089879 0
0.0930707 0.00487915 0
0.0253168 -0.00603626 0
0.109464 0.005751 0
0.0278948 -0.0132928 0
0.0253168 -0.00603626 0
0.036048 -0.0115333 0
0.0299917 -0.00416175 0
0.0253168 -0.00603626 0
0.109464 0.005751 0
0.0299917 -0.00416175 0
0.123429 0.00634916 0
0.036048 -0.0115333 0
0.0299917 -0.00416175 0
0.0400702 -0.00135774 0
0.0332791 -0.000707925 0
0.0299917 -0.00416175 0
0.123429 0.00634916 0
0.0332791 -0.000707925 0
0.135598 0.00751692 0
0.0400702 -0.00135774 0
0.0332791 -0.000707925 0
0.0348963 0.0105711 0
0.0328573 0.00273995 0
0.0332791 -0.000707925 0
0.135598 0.00751692 0
0.0328573 0.00273995 0
0.146501 0.00752258 0
0.0348963 0.0105711 0
0.0328573 0.00273995 0
0.025698 0.00696268 0
0.0317474 0.00239628 0
0.0328573 0.00273995 0
0.146501 0.00752258 0
0.0317474 0.00239628 0
0.156205 0.00856964 0
0.025698 0.00696268 0
0.0317474 0.00239628 0
0.0174273 0.00109269 0
0.0355639 0.00023049 0
0.0317474 0.00239628 0
0.156205 0.00856964 0
0.0355639 0.00023049 0
0.164368 0.00901347 0
0.0174273 0.00109269 0
0.0355639 0.00023049 0
0.0111281 0.0101132 0
0.0387092 0.00697242 0
0.0355639 0.00023049 0
0.164368 0.00901347 0
0.0387092 0.00697242 0
0.171083 0.0104424 0
0.0111281 0.0101132 0
0.0387092 0.00697242 0
0.00818874 0.0225468 0
0.0312117 0.0129684 0
0.0387092 0.00697242 0
0.171083 0.0104424 0
0.0312117 0.0129684 0
0.176941 0.00782579 0
0 0 0
-0.000361844 0.0146308 0
0 0 0
0.00119499 0.0139044 0
-0.000361844 0.0146308 0
-0.00160039 0.0285498 0
0.00119499 0.0139044 0
0.00275851 0.0290774 0
0 0 0
0.00119499 0.0139044 0
0 0 0
0.000103448 0.0126672 0
0.00119499 0.0139044 0
0.00275851 0.0290774 0
0.000103448 0.0126672 0
0.00663726 0.0211311 0
-0.00160039 0.0285498 0
-0.00248881 0.0267896 0
0.00275851 0.0290774 0
0.00399239 0.026111 0
-0.00248881 0.0267896 0
-0.00180112 0.0251405 0
0.00399239 0.026111 0
0.00673193 0.0220296 0
0.00275851 0.0290774 0
0.00399239 0.026111 0
0.00663726 0.0211311 0
0.0153161 0.0228201 0
0.00399239 0.026111 0
0.00673193 0.0220296 0
0.0153161 0.0228201 0
0.0206906 0.0159539 0
-0.0202291 -0.0497433 0
-0.0427616 -0.0675398 0
-0.00947545 -0.0301204 0
-0.0303439 -0.0365864 0
-0.0427616 -0.0675398 0
-0.0670728 -0.0820408 0
-0.0303439 -0.0365864 0
-0.0614687 -0.0486418 0
-0.00947545 -0.0301204 0
-0.0303439 -0.0365864 0
0.0083169 -0.0225895 0
-0.00380442 -0.00521938 0
-0.0303439 -0.0365864 0
-0.0614687 -0.0486418 0
-0.00380442 -0.00521938 0
-0.0375859 -0.0048426 0
0.0083169 -0.0225895 0
-0.00380442 -0.00521938 0
0.0311304 -0.0129397 0
0.0290761 0.00133647 0
-0.00380442 -0.00521938 0
-0.0375859 -0.0048426 0
0.0290761 0.00133647 0
0.0458953 0.008242 0
0.0311304 -0.0129397 0
0.0290761 0.00133647 0
0.176766 -0.00780367 0
0.181246 -0.00715251 0
0.0290761 0.00133647 0
0.0458953 0.008242 0
0.181246 -0.00715251 0
0.182958 -0.00476793 0
-0.0670728 -0.0820408 0
-0.0798717 -0.0102116 0
-0.0614687 -0.0486418 0
-0.0757356 -0.0108687 0
-0.0798717 -0.0102116 0
-0.0659333 0.0577617 0
-0.0757356 -0.0108687 0
-0.0623063 0.0260051 0
-0.0614687 -0.0486418 0
-0.0757356 -0.0108687 0
-0.0375859 -0.0048426 0
-0.0427194 -0.0311443 0
-0.0757356 -0.0108687 0
-0.0623063 0.0260051 0
-0.0427194 -0.0311443 0
-0.0387052 0.025172 0
-0.0659333 0.0577617 0
-0.0457897 0.0483709 0
-0.0623063 0.0260051 0
-0.0478597 0.0396722 0
-0.0457897 0.0483709 0
-0.0422167 0.040204 0
-0.0478597 0.0396722 0
-0.0328725 0.0271737 0
-0.0623063 0.0260051 0
-0.0478597 0.0396722 0
-0.0387052 0.025172 0
-0.0422358 0.0281606 0
-0.0478597 0.0396722 0
-0.0328725 0.0271737 0
-0.0422358 0.0281606 0
-0.0225487 -0.00167138 0
-0.0422167 0.040204 0
-0.0372306 0.0271245 0
-0.0328725 0.0271737 0
-0.0017316 -0.00211251 0
-0.0372306 0.0271245 0
-0.0116767 0.0123048 0
-0.0017316 -0.00211251 0
0.0134978 -0.00653794 0
-0.0328725 0.0271737 0
-0.0017316 -0.00211251 0
-0.0225487 -0.00167138 0
-0.0230854 -0.00872867 0
-0.0017316 -0.00211251 0
0.0134978 -0.00653794 0
-0.0230854 -0.00872867 0
-0.0295562 -0.0098343 0
0 0 0
0 0 0
-0.00315061 0.00668866 0
-0.0382437 0.0341009 0
0 0 0
0 0 0
-0.0382437 0.0341009 0
-0.0375697 -0.0337426 0
-0.00315061 0.00668866 0
-0.0382437 0.0341009 0
-0.0105578 0.0269682 0
0.0125489 0.0277122 0
-0.0382437 0.0341009 0
-0.0375697 -0.0337426 0
0.0125489 0.0277122 0
0.0144691 -0.0296249 0
-0.0105578 0.0269682 0
0.0125489 0.0277122 0
-0.0113955 0.0369343 0
0.00710435 -0.0296969 0
0.0125489 0.0277122 0
0.0144691 -0.0296249 0
0.00710435 -0.0296969 0
-0.0036395 0.0373411 0
-0.0113955 0.0369343 0
0.00710435 -0.0296969 0
-0.0116767 0.0123048 0
-0.00643934 -0.0308998 0
0.00710435 -0.0296969 0
-0.0036395 0.0373411 0
-0.00643934 -0.0308998 0
-0.020673 0.0668128 0
-0.0116767 0.0123048 0
-0.00643934 -0.0308998 0
0.0134978 -0.00653794 0
-0.00990467 0.00867027 0
-0.00643934 -0.0308998 0
-0.020673 0.0668128 0
-0.00990467 0.00867027 0
-0.020692 0.0558879 0
0.0134978 -0.00653794 0
-0.00990467 0.00867027 0
-0.0295562 -0.0098343 0
-0.0111365 0.0176676 0
-0.00990467 0.00867027 0
-0.020692 0.0558879 0
-0.0111365 0.0176676 0
0.00997298 0.0350446 0
0 0 0
0 0 0
-0.0375697 -0.0337426 0
-0.0184141 0.0102886 0
0 0 0
0 0 0
-0.0184141 0.0102886 0
-0.0232839 -0.00371211 0
-0.0375697 -0.0337426 0
-0.0184141 0.0102886 0
0.0144691 -0.0296249 0
-0.0293123 0.033722 0
-0.0184141 0.0102886 0
-0.0232839 -0.00371211 0
-0.0293123 0.033722 0
-0.0442764 -0.00231519 0
0.0144691 -0.0296249 0
-0.0293123 0.033722 0
-0.0036395 0.0373411 0
-0.0284335 0.0466271 0
-0.0293123 0.033722 0
-0.0442764 -0.00231519 0
-0.0284335 0.0466271 0
-0.0267896 0.00121046 0
-0.0036395 0.0373411 0
-0.0284335 0.0466271 0
-0.020673 0.0668128 0
-0.00353 0.0259879 0
-0.0284335 0.0466271 0
-0.0267896 0.00121046 0
-0.00353 0.0259879 0
0.0180056 -0.0050718 0
-0.020673 0.0668128 0
-0.00353 0.0259879 0
-0.020692 0.0558879 0
-0.0161032 0.0114308 0
-0.00353 0.0259879 0
0.0180056 -0.0050718 0
-0.0161032 0.0114308 0
-0.0159357 -0.0156749 0
-0.020692 0.0558879 0
-0.0161032 0.0114308 0
0.00997298 0.0350446 0
0.0206015 0.0141027 0
-0.0161032 0.0114308 0
-0.0159357 -0.0156749 0
0.0206015 0.0141027 0
0.00585162 -0.00143655 0
0 0 0
0 0 0
-0.0232839 -0.00371211 0
-0.01708 -0.00409883 0
0 0 0
0 0 0
-0.01708 -0.00409883 0
-0.00411922 -0.0107477 0
-0.0232839 -0.00371211 0
-0.01708 -0.00409883 0
-0.0442764 -0.00231519 0
-0.042277 -0.0157529 0
-0.01708 -0.00409883 0
-0.00411922 -0.0107477 0
-0.042277 -0.0157529 0
-0.0286686 -0.0295628 0
-0.0442764 -0.00231519 0
-0.042277 -0.0157529 0
-0.0267896 0.00121046 0
-0.0303279 -0.0178358 0
-0.042277 -0.0157529 0
-0.0286686 -0.0295628 0
-0.0303279 -0.0178358 0
-0.0310039 -0.0425054 0
-0.0267896 0.00121046 0
-0.0303279 -0.0178358 0
0.0180056 -0.0050718 0
0.0101695 0.0012508 0
-0.0303279 -0.0178358 0
-0.0310039 -0.0425054 0
0.0101695 0.0012508 0
-0.0107607 -0.0364629 0
0.0180056 -0.0050718 0
0.0101695 0.0012508 0
-0.0159357 -0.0156749 0
-0.00404901 0.00709728 0
0.0101695 0.0012508 0
-0.0107607 -0.0364629 0
-0.00404901 0.00709728 0
-0.000694076 -0.021845 0
-0.0159357 -0.0156749 0
-0.00404901 0.00709728 0
0.00585162 -0.00143655 0
0.00160886 -0.0167592 0
-0.00404901 0.00709728 0
-0.000694076 -0.021845 0
0.00160886 -0.0167592 0
0.00278904 -0.00349735 0
0 0 0
0 0 0
-0.00411922 -0.0107477 0
0.00263037 0.0028946 0
0 0 0
0 0 0
0.00263037 0.0028946 0
0 0 0
-0.00411922 -0.0107477 0
0.00263037 0.0028946 0
-0.0286686 -0.0295628 0
-0.0107701 -0.00688985 0
0.00263037 0.0028946 0
0 0 0
-0.0107701 -0.00688985 0
0 0 0
-0.0286686 -0.0295628 0
-0.0107701 -0.00688985 0
-0.0310039 -0.0425054 0
-0.0133093 -0.0355336 0
-0.0107701 -0.00688985 0
0 0 0
-0.0133093 -0.0355336 0
0 0 0
-0.0310039 -0.0425054 0
-0.0133093 -0.0355336 0
-0.0107607 -0.0364629 0
-0.00996929 -0.0629776 0
-0.0133093 -0.0355336 0
0 0 0
-0.00996929 -0.0629776 0
0 0 0
-0.0107607 -0.0364629 0
-0.00996929 -0.0629776 0
-0.000694076 -0.021845 0
-0.00206547 -0.0771633 0
-0.00996929 -0.0629776 0
0 0 0
-0.00206547 -0.0771633 0
0 0 0
-0.000694076 -0.021845 0
-0.00206547 -0.0771633 0
0.00278904 -0.00349735 0
-0.00526922 -0.0857247 0
-0.00206547 -0.0771633 0
0 0 0
-0.00526922 -0.0857247 0
0 0 0
0.176941 0.00782579 0
0.176908 0.00759736 0
0.181424 0.00717954 0
0.171442 0.00574922 0
0.176908 0.00759736 0
0.131271 0.00335305 0
0.171442 0.00574922 0
0.13011 0.00261282 0
0.181424 0.00717954 0
0.171442 0.00574922 0
0.183127 0.00477944 0
0.168153 0.00374932 0
0.171442 0.00574922 0
0.13011 0.00261282 0
0.168153 0.00374932 0
0.128987 0.00184411 0
0.165764 0.00679132 0
0.107578 0.00597386 0
0.161751 0.00664245 0
0.110141 0.0057799 0
0.107578 0.00597386 0
0.227605 8.15063e-07 0
0.110141 0.0057799 0
0.215027 7.78775e-07 0
0.161751 0.00664245 0
0.110141 0.0057799 0
0.157745 0.00657446 0
0.11227 0.00528265 0
0.110141 0.0057799 0
0.215027 7.78775e-07 0
0.11227 0.00528265 0
0.203545 9.7747e-07 0
0.157745 0.00657446 0
0.11227 0.00528265 0
0.153653 0.00621913 0
0.114225 0.00503277 0
0.11227 0.00528265 0
0.203545 9.7747e-07 0
0.114225 0.00503277 0
0.192969 1.17395e-06 0
0.153653 0.00621913 0
0.114225 0.00503277 0
0.150018 0.00565764 0
0.115921 0.00455496 0
0.114225 0.00503277 0
0.192969 1.17395e-06 0
0.115921 0.00455496 0
0.183289 1.99095e-06 0
0.150018 0.00565764 0
0.115921 0.00455496 0
0.146837 0.00528164 0
0.117332 0.00432278 0
0.115921 0.00455496 0
0.183289 1.99095e-06 0
0.117332 0.00432278 0
0.174521 2.89758e-06 0
0.146837 0.00528164 0
0.117332 0.00432278 0
0.143963 0.00513357 0
0.118425 0.00391718 0
0.117332 0.00432278 0
0.174521 2.89758e-06 0
0.118425 0.00391718 0
0.166663 3.76652e-06 0
0.143963 0.00513357 0
0.118425 0.00391718 0
0.141353 0.00494891 0
0.119158 0.00386253 0
0.118425 0.00391718 0
0.166663 3.76652e-06 0
0.119158 0.00386253 0
0.159623 4.47536e-06 0
0.141353 0.00494891 0
0.119158 0.00386253 0
0.138971 0.00477797 0
0.119543 0.00344381 0
0.119158 0.00386253 0
0.159623 4.47536e-06 0
0.119543 0.00344381 0
0.153261 4.60255e-06 0
0.138971 0.00477797 0
0.119543 0.00344381 0
0.136788 0.00455441 0
0.119578 0.00346308 0
0.119543 0.00344381 0
0.153261 4.60255e-06 0
0.119578 0.00346308 0
0.147563 5.98699e-06 0
0.136788 0.00455441 0
0.119578 0.00346308 0
0.134706 0.00476982 0
0.119331 0.00310104 0
0.119578 0.00346308 0
0.147563 5.98699e-06 0
0.119331 0.00310104 0
0.142537 6.0048e-06 0
0.134706 0.00476982 0
0.119331 0.00310104 0
0.132798 0.00410816 0
0.118953 0.00310014 0
0.119331 0.00310104 0
0.142537 6.0048e-06 0
0.118953 0.00310014 0
0.138033 3.94509e-06 0
0.132798 0.00410816 0
0.118953 0.00310014 0
0.131271 0.00335305 0
0.118619 0.00236542 0
0.118953 0.00310014 0