# vtk DataFile Version 3.0
#This file was generated by the deal.II library on 2026/3/26 at 11:22:56
ASCII
DATASET UNSTRUCTURED_GRID

POINTS 8784 double
0 0 0
0.214286 0 0
0 0.25 0
0.214286 0.25 0
0 0.25 0
0.214286 0.25 0
0 0.5 0
0.214286 0.5 0
0.214286 0 0
0.428571 0 0
0.214286 0.25 0
0.428571 0.25 0
0.214286 0.25 0
0.428571 0.25 0
0.214286 0.5 0
0.428571 0.5 0
0 3 0
0 2.75 0
0.214286 3 0
0.214286 2.75 0
0.214286 3 0
0.214286 2.75 0
0.428571 3 0
0.428571 2.75 0
0 2.75 0
0 2.5 0
0.214286 2.75 0
0.214286 2.5 0
0.214286 2.75 0
0.214286 2.5 0
0.428571 2.75 0
0.428571 2.5 0
0.857143 0.75 0
0.964286 0.75 0
0.857143 0.875 0
0.964286 0.875 0
0.964286 0.75 0
1.07143 0.75 0
0.964286 0.875 0
1.07143 0.875 0
0.857143 0.875 0
0.964286 0.875 0
0.857143 1 0
0.964286 1 0
0.964286 0.875 0
1.07143 0.875 0
0.964286 1 0
1.07143 1 0
1.07143 0.75 0
1.17857 0.75 0
1.07143 0.875 0
1.17857 0.875 0
1.17857 0.75 0
1.28571 0.75 0
1.17857 0.875 0
1.28571 0.875 0
1.07143 0.875 0
1.17857 0.875 0
1.07143 1 0
1.17857 1 0
1.17857 0.875 0
1.28571 0.875 0
1.17857 1 0
1.28571 1 0
0.857143 2 0
0.857143 1.875 0
0.964286 2 0
0.964286 1.875 0
0.857143 1.875 0
0.857143 1.75 0
0.964286 1.875 0
0.964286 1.75 0
0.964286 2 0
0.964286 1.875 0
1.07143 2 0
1.07143 1.875 0
0.964286 1.875 0
0.964286 1.75 0
1.07143 1.875 0
1.07143 1.75 0
1.07143 2 0
1.07143 1.875 0
1.17857 2 0
1.17857 1.875 0
1.07143 1.875 0
1.07143 1.75 0
1.17857 1.875 0
1.17857 1.75 0
1.17857 2 0
1.17857 1.875 0
1.28571 2 0
1.28571 1.875 0
1.17857 1.875 0
1.17857 1.75 0
1.28571 1.875 0
1.28571 1.75 0
0.857143 1.25 0
0.857143 1.125 0
0.964286 1.25 0
0.964286 1.125 0
0.857143 1.125 0
0.857143 1 0
0.964286 1.125 0
0.964286 1 0
0.964286 1.25 0
0.964286 1.125 0
1.07143 1.25 0
1.07143 1.125 0
0.964286 1.125 0
0.964286 1 0
1.07143 1.125 0
1.07143 1 0
1.07143 1.25 0
1.07143 1.125 0
1.17857 1.25 0
1.17857 1.125 0
1.07143 1.125 0
1.07143 1 0
1.17857 1.125 0
1.17857 1 0
1.17857 1.25 0
1.17857 1.125 0
1.28571 1.25 0
1.28571 1.125 0
1.17857 1.125 0
1.17857 1 0
1.28571 1.125 0
1.28571 1 0
0.857143 2.25 0
0.857143 2.125 0
0.964286 2.25 0
0.964286 2.125 0
0.857143 2.125 0
0.857143 2 0
0.964286 2.125 0
0.964286 2 0
0.964286 2.25 0
0.964286 2.125 0
1.07143 2.25 0
1.07143 2.125 0
0.964286 2.125 0
0.964286 2 0
1.07143 2.125 0
1.07143 2 0
1.07143 2.25 0
1.07143 2.125 0
1.17857 2.25 0
1.17857 2.125 0
1.07143 2.125 0
1.07143 2 0
1.17857 2.125 0
1.17857 2 0
1.17857 2.25 0
1.17857 2.125 0
1.28571 2.25 0
1.28571 2.125 0
1.17857 2.125 0
1.17857 2 0
1.28571 2.125 0
1.28571 2 0
0 0.5 0
0.107143 0.5 0
0 0.625 0
0.107143 0.625 0
0.107143 0.5 0
0.214286 0.5 0
0.107143 0.625 0
0.214286 0.625 0
0 0.625 0
0.107143 0.625 0
0 0.75 0
0.107143 0.75 0
0.107143 0.625 0
0.214286 0.625 0
0.107143 0.75 0
0.214286 0.75 0
0.214286 0.5 0
0.321429 0.5 0
0.214286 0.625 0
0.321429 0.625 0
0.321429 0.5 0
0.428571 0.5 0
0.321429 0.625 0
0.428571 0.625 0
0.214286 0.625 0
0.321429 0.625 0
0.214286 0.75 0
0.321429 0.75 0
0.321429 0.625 0
0.428571 0.625 0
0.321429 0.75 0
0.428571 0.75 0
2.57143 0 0
2.67857 0 0
2.57143 0.125 0
2.67857 0.125 0
2.67857 0 0
2.78571 0 0
2.67857 0.125 0
2.78571 0.125 0
2.57143 0.125 0
2.67857 0.125 0
2.57143 0.25 0
2.67857 0.25 0
2.67857 0.125 0
2.78571 0.125 0
2.67857 0.25 0
2.78571 0.25 0
2.78571 0 0
2.89286 0 0
2.78571 0.125 0
2.89286 0.125 0
2.89286 0 0
3 0 0
2.89286 0.125 0
3 0.125 0
2.78571 0.125 0
2.89286 0.125 0
2.78571 0.25 0
2.89286 0.25 0
2.89286 0.125 0
3 0.125 0
2.89286 0.25 0
3 0.25 0
0.857143 1.75 0
0.857143 1.625 0
0.964286 1.75 0
0.964286 1.625 0
0.857143 1.625 0
0.857143 1.5 0
0.964286 1.625 0
0.964286 1.5 0
0.964286 1.75 0
0.964286 1.625 0
1.07143 1.75 0
1.07143 1.625 0
0.964286 1.625 0
0.964286 1.5 0
1.07143 1.625 0
1.07143 1.5 0
1.07143 1.75 0
1.07143 1.625 0
1.17857 1.75 0
1.17857 1.625 0
1.07143 1.625 0
1.07143 1.5 0
1.17857 1.625 0
1.17857 1.5 0
1.17857 1.75 0
1.17857 1.625 0
1.28571 1.75 0
1.28571 1.625 0
1.17857 1.625 0
1.17857 1.5 0
1.28571 1.625 0
1.28571 1.5 0
1.28571 1.75 0
1.28571 1.625 0
1.39286 1.75 0
1.39286 1.625 0
1.28571 1.625 0
1.28571 1.5 0
1.39286 1.625 0
1.39286 1.5 0
1.39286 1.75 0
1.39286 1.625 0
1.5 1.75 0
1.5 1.625 0
1.39286 1.625 0
1.39286 1.5 0
1.5 1.625 0
1.5 1.5 0
1.5 1.75 0
1.5 1.625 0
1.60714 1.75 0
1.60714 1.625 0
1.5 1.625 0
1.5 1.5 0
1.60714 1.625 0
1.60714 1.5 0
1.60714 1.75 0
1.60714 1.625 0
1.71429 1.75 0
1.71429 1.625 0
1.60714 1.625 0
1.60714 1.5 0
1.71429 1.625 0
1.71429 1.5 0
1.71429 1.75 0
1.71429 1.625 0
1.82143 1.75 0
1.82143 1.625 0
1.71429 1.625 0
1.71429 1.5 0
1.82143 1.625 0
1.82143 1.5 0
1.82143 1.75 0
1.82143 1.625 0
1.92857 1.75 0
1.92857 1.625 0
1.82143 1.625 0
1.82143 1.5 0
1.92857 1.625 0
1.92857 1.5 0
1.92857 1.75 0
1.92857 1.625 0
2.03571 1.75 0
2.03571 1.625 0
1.92857 1.625 0
1.92857 1.5 0
2.03571 1.625 0
2.03571 1.5 0
2.03571 1.75 0
2.03571 1.625 0
2.14286 1.75 0
2.14286 1.625 0
2.03571 1.625 0
2.03571 1.5 0
2.14286 1.625 0
2.14286 1.5 0
2.14286 1.75 0
2.14286 1.625 0
2.25 1.75 0
2.25 1.625 0
2.14286 1.625 0
2.14286 1.5 0
2.25 1.625 0
2.25 1.5 0
2.25 1.75 0
2.25 1.625 0
2.35714 1.75 0
2.35714 1.625 0
2.25 1.625 0
2.25 1.5 0
2.35714 1.625 0
2.35714 1.5 0
1.07143 1.5 0
1.07143 1.375 0
1.17857 1.5 0
1.17857 1.375 0
1.07143 1.375 0
1.07143 1.25 0
1.17857 1.375 0
1.17857 1.25 0
1.17857 1.5 0
1.17857 1.375 0
1.28571 1.5 0
1.28571 1.375 0
1.17857 1.375 0
1.17857 1.25 0
1.28571 1.375 0
1.28571 1.25 0
1.28571 1.5 0
1.28571 1.375 0
1.39286 1.5 0
1.39286 1.375 0
1.28571 1.375 0
1.28571 1.25 0
1.39286 1.375 0
1.39286 1.25 0
1.39286 1.5 0
1.39286 1.375 0
1.5 1.5 0
1.5 1.375 0
1.39286 1.375 0
1.39286 1.25 0
1.5 1.375 0
1.5 1.25 0
1.5 1.5 0
1.5 1.375 0
1.60714 1.5 0
1.60714 1.375 0
1.5 1.375 0
1.5 1.25 0
1.60714 1.375 0
1.60714 1.25 0
1.60714 1.5 0
1.60714 1.375 0
1.71429 1.5 0
1.71429 1.375 0
1.60714 1.375 0
1.60714 1.25 0
1.71429 1.375 0
1.71429 1.25 0
1.71429 1.5 0
1.71429 1.375 0
1.82143 1.5 0
1.82143 1.375 0
1.71429 1.375 0
1.71429 1.25 0
1.82143 1.375 0
1.82143 1.25 0
1.82143 1.5 0
1.82143 1.375 0
1.92857 1.5 0
1.92857 1.375 0
1.82143 1.375 0
1.82143 1.25 0
1.92857 1.375 0
1.92857 1.25 0
1.92857 1.5 0
1.92857 1.375 0
2.03571 1.5 0
2.03571 1.375 0
1.92857 1.375 0
1.92857 1.25 0
2.03571 1.375 0
2.03571 1.25 0
2.03571 1.5 0
2.03571 1.375 0
2.14286 1.5 0
2.14286 1.375 0
2.03571 1.375 0
2.03571 1.25 0
2.14286 1.375 0
2.14286 1.25 0
2.14286 1.5 0
2.14286 1.375 0
2.25 1.5 0
2.25 1.375 0
2.14286 1.375 0
2.14286 1.25 0
2.25 1.375 0
2.25 1.25 0
2.25 1.5 0
2.25 1.375 0
2.35714 1.5 0
2.35714 1.375 0
2.25 1.375 0
2.25 1.25 0
2.35714 1.375 0
2.35714 1.25 0
2.57143 3 0
2.57143 2.875 0
2.67857 3 0
2.67857 2.875 0
2.57143 2.875 0
2.57143 2.75 0
2.67857 2.875 0
2.67857 2.75 0
2.67857 3 0
2.67857 2.875 0
2.78571 3 0
2.78571 2.875 0
2.67857 2.875 0
2.67857 2.75 0
2.78571 2.875 0
2.78571 2.75 0
2.78571 3 0
2.78571 2.875 0
2.89286 3 0
2.89286 2.875 0
2.78571 2.875 0
2.78571 2.75 0
2.89286 2.875 0
2.89286 2.75 0
2.89286 3 0
2.89286 2.875 0
3 3 0
3 2.875 0
2.89286 2.875 0
2.89286 2.75 0
3 2.875 0
3 2.75 0
0 2.5 0
0 2.375 0
0.107143 2.5 0
0.107143 2.375 0
0 2.375 0
0 2.25 0
0.107143 2.375 0
0.107143 2.25 0
0.107143 2.5 0
0.107143 2.375 0
0.214286 2.5 0
0.214286 2.375 0
0.107143 2.375 0
0.107143 2.25 0
0.214286 2.375 0
0.214286 2.25 0
0.214286 2.5 0
0.214286 2.375 0
0.321429 2.5 0
0.321429 2.375 0
0.214286 2.375 0
0.214286 2.25 0
0.321429 2.375 0
0.321429 2.25 0
0.321429 2.5 0
0.321429 2.375 0
0.428571 2.5 0
0.428571 2.375 0
0.321429 2.375 0
0.321429 2.25 0
0.428571 2.375 0
0.428571 2.25 0
0.428571 0 0
0.535714 0 0
0.428571 0.125 0
0.535714 0.125 0
0.535714 0 0
0.642857 0 0
0.535714 0.125 0
0.642857 0.125 0
0.428571 0.125 0
0.535714 0.125 0
0.428571 0.25 0
0.535714 0.25 0
0.535714 0.125 0
0.642857 0.125 0
0.535714 0.25 0
0.642857 0.25 0
0.428571 0.25 0
0.535714 0.25 0
0.428571 0.375 0
0.535714 0.375 0
0.535714 0.25 0
0.642857 0.25 0
0.535714 0.375 0
0.642857 0.375 0
0.428571 0.375 0
0.535714 0.375 0
0.428571 0.5 0
0.535714 0.5 0
0.535714 0.375 0
0.642857 0.375 0
0.535714 0.5 0
0.642857 0.5 0
0.428571 0.5 0
0.535714 0.5 0
0.428571 0.625 0
0.535714 0.625 0
0.535714 0.5 0
0.642857 0.5 0
0.535714 0.625 0
0.642857 0.625 0
0.428571 0.625 0
0.535714 0.625 0
0.428571 0.75 0
0.535714 0.75 0
0.535714 0.625 0
0.642857 0.625 0
0.535714 0.75 0
0.642857 0.75 0
0.642857 0 0
0.75 0 0
0.642857 0.125 0
0.75 0.125 0
0.75 0 0
0.857143 0 0
0.75 0.125 0
0.857143 0.125 0
0.642857 0.125 0
0.75 0.125 0
0.642857 0.25 0
0.75 0.25 0
0.75 0.125 0
0.857143 0.125 0
0.75 0.25 0
0.857143 0.25 0
0.642857 0.25 0
0.75 0.25 0
0.642857 0.375 0
0.75 0.375 0
0.75 0.25 0
0.857143 0.25 0
0.75 0.375 0
0.857143 0.375 0
0.642857 0.375 0
0.75 0.375 0
0.642857 0.5 0
0.75 0.5 0
0.75 0.375 0
0.857143 0.375 0
0.75 0.5 0
0.857143 0.5 0
0.642857 0.5 0
0.75 0.5 0
0.642857 0.625 0
0.75 0.625 0
0.75 0.5 0
0.857143 0.5 0
0.75 0.625 0
0.857143 0.625 0
0.642857 0.625 0
0.75 0.625 0
0.642857 0.75 0
0.75 0.75 0
0.75 0.625 0
0.857143 0.625 0
0.75 0.75 0
0.857143 0.75 0
0.857143 0 0
0.964286 0 0
0.857143 0.125 0
0.964286 0.125 0
0.964286 0 0
1.07143 0 0
0.964286 0.125 0
1.07143 0.125 0
0.857143 0.125 0
0.964286 0.125 0
0.857143 0.25 0
0.964286 0.25 0
0.964286 0.125 0
1.07143 0.125 0
0.964286 0.25 0
1.07143 0.25 0
0.857143 0.25 0
0.964286 0.25 0
0.857143 0.375 0
0.964286 0.375 0
0.964286 0.25 0
1.07143 0.25 0
0.964286 0.375 0
1.07143 0.375 0
0.857143 0.375 0
0.964286 0.375 0
0.857143 0.5 0
0.964286 0.5 0
0.964286 0.375 0
1.07143 0.375 0
0.964286 0.5 0
1.07143 0.5 0
0.857143 0.5 0
0.964286 0.5 0
0.857143 0.625 0
0.964286 0.625 0
0.964286 0.5 0
1.07143 0.5 0
0.964286 0.625 0
1.07143 0.625 0
0.857143 0.625 0
0.964286 0.625 0
0.857143 0.75 0
0.964286 0.75 0
0.964286 0.625 0
1.07143 0.625 0
0.964286 0.75 0
1.07143 0.75 0
1.07143 0 0
1.17857 0 0
1.07143 0.125 0
1.17857 0.125 0
1.17857 0 0
1.28571 0 0
1.17857 0.125 0
1.28571 0.125 0
1.07143 0.125 0
1.17857 0.125 0
1.07143 0.25 0
1.17857 0.25 0
1.17857 0.125 0
1.28571 0.125 0
1.17857 0.25 0
1.28571 0.25 0
1.07143 0.25 0
1.17857 0.25 0
1.07143 0.375 0
1.17857 0.375 0
1.17857 0.25 0
1.28571 0.25 0
[...]
POINT_DATA 8784
VECTORS velocity double
0 0 0
0 0 0
0 0 0
0.0952627 -0.107381 0
0 0 0
0.0952627 -0.107381 0
0 0 0
0.0291686 -0.249342 0
0 0 0
0 0 0
0.0952627 -0.107381 0
0.216284 -0.0368452 0
0.0952627 -0.107381 0
0.216284 -0.0368452 0
0.0291686 -0.249342 0
-0.0562192 0.0714376 0
0 0 0
0 0 0
0 0 0
0.0775915 0.0879346 0
0 0 0
0.0775915 0.0879346 0
0 0 0
0.169029 0.0223785 0
0 0 0
0 0 0
0.0775915 0.0879346 0
0.0227349 0.201977 0
0.0775915 0.0879346 0
0.0227349 0.201977 0
0.169029 0.0223785 0
-0.0558081 -0.0839434 0
0.341594 0.085582 0
0.363486 -0.0614271 0
0.158927 0.0238433 0
0.168874 -0.0329654 0
0.363486 -0.0614271 0
0.293493 -0.156948 0
0.168874 -0.0329654 0
0.13452 -0.0617373 0
0.158927 0.0238433 0
0.168874 -0.0329654 0
0.184334 -0.0310021 0
0.225595 -0.0434498 0
0.168874 -0.0329654 0
0.13452 -0.0617373 0
0.225595 -0.0434498 0
0.261934 -0.0573737 0
0.293493 -0.156948 0
0.201877 -0.0851503 0
0.13452 -0.0617373 0
0.11028 -0.0447052 0
0.201877 -0.0851503 0
0.105512 -0.0427367 0
0.11028 -0.0447052 0
0.14395 -0.00927989 0
0.13452 -0.0617373 0
0.11028 -0.0447052 0
0.261934 -0.0573737 0
0.29371 -0.0610332 0
0.11028 -0.0447052 0
0.14395 -0.00927989 0
0.29371 -0.0610332 0
0.319722 -0.0624857 0
0.193351 0.0256766 0
0.295327 0.0365268 0
0.230563 0.0372609 0
0.27459 0.0425057 0
0.295327 0.0365268 0
0.221594 0.0334049 0
0.27459 0.0425057 0
0.232054 0.0355427 0
0.230563 0.0372609 0
0.27459 0.0425057 0
0.263396 0.0488608 0
0.246567 0.0465796 0
0.27459 0.0425057 0
0.232054 0.0355427 0
0.246567 0.0465796 0
0.241169 0.0336053 0
0.263396 0.0488608 0
0.246567 0.0465796 0
0.292306 0.0518586 0
0.213835 0.0476421 0
0.246567 0.0465796 0
0.241169 0.0336053 0
0.213835 0.0476421 0
0.249864 0.0346018 0
0.292306 0.0518586 0
0.213835 0.0476421 0
0.316045 0.0527575 0
0.180889 0.044165 0
0.213835 0.0476421 0
0.249864 0.0346018 0
0.180889 0.044165 0
0.257587 0.0288755 0
0.245345 -0.0385964 0
0.274104 -0.0453039 0
0.250421 -0.0410661 0
0.253759 -0.0503757 0
0.274104 -0.0453039 0
0.184334 -0.0310021 0
0.253759 -0.0503757 0
0.225595 -0.0434498 0
0.250421 -0.0410661 0
0.253759 -0.0503757 0
0.259181 -0.0410598 0
0.223831 -0.0550449 0
0.253759 -0.0503757 0
0.225595 -0.0434498 0
0.223831 -0.0550449 0
0.261934 -0.0573737 0
0.259181 -0.0410598 0
0.223831 -0.0550449 0
0.269414 -0.0417067 0
0.187876 -0.0563793 0
0.223831 -0.0550449 0
0.261934 -0.0573737 0
0.187876 -0.0563793 0
0.29371 -0.0610332 0
0.269414 -0.0417067 0
0.187876 -0.0563793 0
0.278637 -0.0354188 0
0.1509 -0.0522447 0
0.187876 -0.0563793 0
0.29371 -0.0610332 0
0.1509 -0.0522447 0
0.319722 -0.0624857 0
0.311114 -0.0710653 0
0.155114 -0.0195508 0
0.330921 0.0582118 0
0.158257 0.0302186 0
0.155114 -0.0195508 0
0.193351 0.0256766 0
0.158257 0.0302186 0
0.230563 0.0372609 0
0.330921 0.0582118 0
0.158257 0.0302186 0
0.267588 0.144414 0
0.122766 0.0555287 0
0.158257 0.0302186 0
0.230563 0.0372609 0
0.122766 0.0555287 0
0.263396 0.0488608 0
0.267588 0.144414 0
0.122766 0.0555287 0
0.179951 0.0804722 0
0.0977878 0.0376943 0
0.122766 0.0555287 0
0.263396 0.0488608 0
0.0977878 0.0376943 0
0.292306 0.0518586 0
0.179951 0.0804722 0
0.0977878 0.0376943 0
0.092016 0.0351268 0
0.125448 0.00694775 0
0.0977878 0.0376943 0
0.292306 0.0518586 0
0.125448 0.00694775 0
0.316045 0.0527575 0
0 0 0
0.00727837 -0.128942 0
0 0 0
-0.0296968 -0.104416 0
0.00727837 -0.128942 0
0.0291686 -0.249342 0
-0.0296968 -0.104416 0
-0.0757704 -0.247294 0
0 0 0
-0.0296968 -0.104416 0
0 0 0
-0.0418086 -0.0216838 0
-0.0296968 -0.104416 0
-0.0757704 -0.247294 0
-0.0418086 -0.0216838 0
-0.105408 -0.202524 0
0.0291686 -0.249342 0
0.0226668 -0.0929117 0
-0.0757704 -0.247294 0
-0.083011 -0.0787525 0
0.0226668 -0.0929117 0
-0.0562192 0.0714376 0
-0.083011 -0.0787525 0
-0.0222269 0.0774081 0
-0.0757704 -0.247294 0
-0.083011 -0.0787525 0
-0.105408 -0.202524 0
-0.121761 -0.0961687 0
-0.083011 -0.0787525 0
-0.0222269 0.0774081 0
-0.121761 -0.0961687 0
-0.111605 0.0112735 0
0 0 0
0 0 0
-0.341185 0.0447319 0
-0.308726 -0.0817569 0
0 0 0
0 0 0
-0.308726 -0.0817569 0
-0.1452 -0.10576 0
-0.341185 0.0447319 0
-0.308726 -0.0817569 0
-0.250866 -0.022773 0
-0.206311 -0.110428 0
-0.308726 -0.0817569 0
-0.1452 -0.10576 0
-0.206311 -0.110428 0
-0.222363 -0.252859 0
0 0 0
0 0 0
-0.1452 -0.10576 0
-0.0273245 -0.0304713 0
0 0 0
0 0 0
-0.0273245 -0.0304713 0
0 0 0
-0.1452 -0.10576 0
-0.0273245 -0.0304713 0
-0.222363 -0.252859 0
-0.0939809 -0.179166 0
-0.0273245 -0.0304713 0
0 0 0
-0.0939809 -0.179166 0
0 0 0
0.221594 0.0334049 0
0.225937 0.0200193 0
0.232054 0.0355427 0
0.190552 0.0191672 0
0.225937 0.0200193 0
-0.72414 -0.00501877 0
0.190552 0.0191672 0
-0.731661 -0.00562469 0
0.232054 0.0355427 0
0.190552 0.0191672 0
0.241169 0.0336053 0
0.155608 0.0191304 0
0.190552 0.0191672 0
-0.731661 -0.00562469 0
0.155608 0.0191304 0
-0.739239 -0.00456846 0
0.241169 0.0336053 0
0.155608 0.0191304 0
0.249864 0.0346018 0
0.120344 0.0165007 0
0.155608 0.0191304 0
-0.739239 -0.00456846 0
0.120344 0.0165007 0
-0.741373 -0.00353538 0
0.249864 0.0346018 0
0.120344 0.0165007 0
0.257587 0.0288755 0
0.0873265 0.0156816 0
0.120344 0.0165007 0
-0.741373 -0.00353538 0
0.0873265 0.0156816 0
-0.741734 -0.00288492 0
0.257587 0.0288755 0
0.0873265 0.0156816 0
0.26205 0.0267797 0
0.0581691 0.00959573 0
0.0873265 0.0156816 0
-0.741734 -0.00288492 0
0.0581691 0.00959573 0
-0.739004 -0.00179785 0
0.26205 0.0267797 0
0.0581691 0.00959573 0
0.261106 0.0177251 0
0.0356779 0.00595157 0
0.0581691 0.00959573 0
-0.739004 -0.00179785 0
0.0356779 0.00595157 0
-0.732777 -0.000805586 0
0.261106 0.0177251 0
0.0356779 0.00595157 0
0.260842 0.00840964 0
0.0192558 -0.00143271 0
0.0356779 0.00595157 0
-0.732777 -0.000805586 0
0.0192558 -0.00143271 0
-0.721409 0.000661905 0
0.260842 0.00840964 0
0.0192558 -0.00143271 0
0.262585 -0.00614342 0
0.0113097 -0.00539737 0
0.0192558 -0.00143271 0
-0.721409 0.000661905 0
0.0113097 -0.00539737 0
-0.706747 0.00179158 0
0.262585 -0.00614342 0
0.0113097 -0.00539737 0
0.268262 -0.0154745 0
0.00993649 -0.0137719 0
0.0113097 -0.00539737 0
-0.706747 0.00179158 0
0.00993649 -0.0137719 0
-0.686432 0.0028623 0
0.268262 -0.0154745 0
0.00993649 -0.0137719 0
0.275139 -0.0236092 0
0.0140727 -0.0152778 0
0.00993649 -0.0137719 0
-0.686432 0.0028623 0
0.0140727 -0.0152778 0
-0.661344 0.00343234 0
0.275139 -0.0236092 0
0.0140727 -0.0152778 0
0.278836 -0.0196915 0
0.0204842 -0.0196421 0
0.0140727 -0.0152778 0
-0.661344 0.00343234 0
0.0204842 -0.0196421 0
-0.633123 0.00411288 0
0.278836 -0.0196915 0
0.0204842 -0.0196421 0
0.274207 -0.0191902 0
0.0297104 -0.0161061 0
0.0204842 -0.0196421 0
-0.633123 0.00411288 0
0.0297104 -0.0161061 0
-0.60668 0.00421713 0
0.274207 -0.0191902 0
0.0297104 -0.0161061 0
0.261483 -0.0149936 0
0.0402873 -0.0237036 0
0.0297104 -0.0161061 0
-0.60668 0.00421713 0
0.0402873 -0.0237036 0
-0.578524 0.00458512 0
0.261483 -0.0149936 0
0.0402873 -0.0237036 0
0.24309 -0.0260442 0
0.0574194 -0.0232578 0
0.0402873 -0.0237036 0
-0.578524 0.00458512 0
0.0574194 -0.0232578 0
-0.548152 0.00551536 0
-0.739239 -0.00456846 0
0.280738 -0.0278667 0
-0.741373 -0.00353538 0
0.244534 -0.0242856 0
0.280738 -0.0278667 0
0.259181 -0.0410598 0
0.244534 -0.0242856 0
0.269414 -0.0417067 0
-0.741373 -0.00353538 0
0.244534 -0.0242856 0
-0.741734 -0.00288492 0
0.21003 -0.0225456 0
0.244534 -0.0242856 0
0.269414 -0.0417067 0
0.21003 -0.0225456 0
0.278637 -0.0354188 0
-0.741734 -0.00288492 0
0.21003 -0.0225456 0
-0.739004 -0.00179785 0
0.17866 -0.0147095 0
0.21003 -0.0225456 0
0.278637 -0.0354188 0
0.17866 -0.0147095 0
0.28482 -0.0320409 0
-0.739004 -0.00179785 0
0.17866 -0.0147095 0
-0.732777 -0.000805586 0
0.153389 -0.00926064 0
0.17866 -0.0147095 0
0.28482 -0.0320409 0
0.153389 -0.00926064 0
0.285493 -0.021582 0
-0.732777 -0.000805586 0
0.153389 -0.00926064 0
-0.721409 0.000661905 0
0.133938 0.000984095 0
0.153389 -0.00926064 0
0.285493 -0.021582 0
0.133938 0.000984095 0
0.286673 -0.00958178 0
-0.721409 0.000661905 0
0.133938 0.000984095 0
-0.706747 0.00179158 0
0.122876 0.00727537 0
0.133938 0.000984095 0
0.286673 -0.00958178 0
0.122876 0.00727537 0
0.290258 0.0077256 0
-0.706747 0.00179158 0
0.122876 0.00727537 0
-0.686432 0.0028623 0
0.118581 0.0179962 0
0.122876 0.00727537 0
0.290258 0.0077256 0
0.118581 0.0179962 0
0.298511 0.0200258 0
-0.686432 0.0028623 0
0.118581 0.0179962 0
-0.661344 0.00343234 0
0.119845 0.0205363 0
0.118581 0.0179962 0
0.298511 0.0200258 0
0.119845 0.0205363 0
0.308268 0.0287111 0
-0.661344 0.00343234 0
0.119845 0.0205363 0
-0.633123 0.00411288 0
0.122855 0.0258131 0
0.119845 0.0205363 0
0.308268 0.0287111 0
0.122855 0.0258131 0
0.313402 0.0238995 0
-0.633123 0.00411288 0
0.122855 0.0258131 0
-0.60668 0.00421713 0
0.127541 0.0216915 0
0.122855 0.0258131 0
0.313402 0.0238995 0
0.127541 0.0216915 0
0.307248 0.0197599 0
-0.60668 0.00421713 0
0.127541 0.0216915 0
-0.578524 0.00458512 0
0.132406 0.0295124 0
0.127541 0.0216915 0
0.307248 0.0197599 0
0.132406 0.0295124 0
0.289971 0.0140878 0
-0.578524 0.00458512 0
0.132406 0.0295124 0
-0.548152 0.00551536 0
0.142948 0.0306132 0
0.132406 0.0295124 0
0.289971 0.0140878 0
0.142948 0.0306132 0
0.265624 0.0250444 0
0 0 0
-0.276085 -0.0328685 0
0 0 0
-0.244515 0.0689926 0
-0.276085 -0.0328685 0
-0.212746 0.0202469 0
-0.244515 0.0689926 0
-0.178013 0.097778 0
0 0 0
-0.244515 0.0689926 0
0 0 0
-0.112902 0.0821161 0
-0.244515 0.0689926 0
-0.178013 0.097778 0
-0.112902 0.0821161 0
-0.181869 0.205172 0
0 0 0
-0.112902 0.0821161 0
0 0 0
-0.0212769 0.0237787 0
-0.112902 0.0821161 0
-0.181869 0.205172 0
-0.0212769 0.0237787 0
-0.0737474 0.140212 0
0 0 0
-0.0212769 0.0237787 0
0 0 0
0 0 0
-0.0212769 0.0237787 0
-0.0737474 0.140212 0
0 0 0
0 0 0
0 0 0
0 0 0
0.00569801 0.104628 0
-0.0247219 0.0839601 0
0 0 0
0 0 0
-0.0247219 0.0839601 0
-0.0344169 0.0156283 0
0.00569801 0.104628 0
-0.0247219 0.0839601 0
0.0227349 0.201977 0
-0.0625269 0.200062 0
-0.0247219 0.0839601 0
-0.0344169 0.0156283 0
-0.0625269 0.200062 0
-0.0868459 0.163558 0
0.0227349 0.201977 0
-0.0625269 0.200062 0
0.014644 0.062379 0
-0.066341 0.0505428 0
-0.0625269 0.200062 0
-0.0868459 0.163558 0
-0.066341 0.0505428 0
-0.0977583 0.0700652 0
0.014644 0.062379 0
-0.066341 0.0505428 0
-0.0558081 -0.0839434 0
-0.0105693 -0.0881121 0
-0.066341 0.0505428 0
-0.0977583 0.0700652 0
-0.0105693 -0.0881121 0
-0.0839111 -0.0257108 0
0 0 0
0 0 0
0.111627 -0.0103228 0
0.158281 -0.0371872 0
0 0 0
0 0 0
0.158281 -0.0371872 0
0.121166 0.0861806 0
0.111627 -0.0103228 0
0.158281 -0.0371872 0
0.216284 -0.0368452 0
0.140882 0.0146387 0
0.158281 -0.0371872 0
0.121166 0.0861806 0
0.140882 0.0146387 0
0.000874484 0.226827 0
0.216284 -0.0368452 0
0.140882 0.0146387 0
0.0759924 -0.0238882 0
-0.110997 0.304003 0
0.140882 0.0146387 0
0.000874484 0.226827 0
-0.110997 0.304003 0
-0.271083 0.2907 0
0.0759924 -0.0238882 0
-0.110997 0.304003 0
-0.0562192 0.0714376 0
-0.102539 0.482653 0
-0.110997 0.304003 0
-0.271083 0.2907 0
-0.102539 0.482653 0
-0.117497 0.319893 0
-0.0562192 0.0714376 0
-0.102539 0.482653 0
-0.0222269 0.0774081 0
0.105576 0.382096 0
-0.102539 0.482653 0
-0.117497 0.319893 0
0.105576 0.382096 0
0.218194 0.304845 0
-0.0222269 0.0774081 0
0.105576 0.382096 0
-0.111605 0.0112735 0
-0.00112165 0.169492 0
0.105576 0.382096 0
0.218194 0.304845 0
-0.00112165 0.169492 0
0.122959 0.242646 0
0 0 0
0 0 0
0.121166 0.0861806 0
0.00508995 0.0610304 0
0 0 0
0 0 0
0.00508995 0.0610304 0
-0.10423 0.0753059 0
0.121166 0.0861806 0
0.00508995 0.0610304 0
0.000874484 0.226827 0
-0.0935019 0.158687 0
0.00508995 0.0610304 0
-0.10423 0.0753059 0
-0.0935019 0.158687 0
-0.128749 0.138303 0
0.000874484 0.226827 0
-0.0935019 0.158687 0
-0.271083 0.2907 0
-0.313097 0.252548 0
-0.0935019 0.158687 0
-0.128749 0.138303 0
-0.313097 0.252548 0
-0.302513 0.0747601 0
-0.271083 0.2907 0
-0.313097 0.252548 0
-0.117497 0.319893 0
-0.0794307 0.227375 0
-0.313097 0.252548 0
-0.302513 0.0747601 0
-0.0794307 0.227375 0
-0.0690172 0.0784428 0
-0.117497 0.319893 0
-0.0794307 0.227375 0
0.218194 0.304845 0
0.204639 0.2115 0
-0.0794307 0.227375 0
-0.0690172 0.0784428 0
0.204639 0.2115 0
0.161622 0.131007 0
0.218194 0.304845 0
0.204639 0.2115 0
0.122959 0.242646 0
0.223124 0.171411 0
0.204639 0.2115 0
0.161622 0.131007 0
0.223124 0.171411 0
0.341594 0.085582 0
0 0 0
0 0 0
-0.10423 0.0753059 0
-0.176027 0.0202878 0
0 0 0
0 0 0
-0.176027 0.0202878 0
-0.200025 0.0163306 0
-0.10423 0.0753059 0
-0.176027 0.0202878 0
-0.128749 0.138303 0
-0.111466 0.0164551 0
-0.176027 0.0202878 0
-0.200025 0.0163306 0
-0.111466 0.0164551 0
-0.0684364 -0.00780419 0
-0.128749 0.138303 0
-0.111466 0.0164551 0
-0.302513 0.0747601 0
-0.222539 -0.0361501 0
-0.111466 0.0164551 0
-0.0684364 -0.00780419 0
-0.222539 -0.0361501 0
-0.12222 -0.123797 0
-0.302513 0.0747601 0
-0.222539 -0.0361501 0
-0.0690172 0.0784428 0
-0.112718 -0.0821865 0
-0.222539 -0.0361501 0
-0.12222 -0.123797 0
-0.112718 -0.0821865 0
-0.0822946 -0.228238 0
-0.0690172 0.0784428 0
-0.112718 -0.0821865 0
0.161622 0.131007 0
0.159906 -0.0831164 0
-0.112718 -0.0821865 0
-0.0822946 -0.228238 0
0.159906 -0.0831164 0
0.140574 -0.241271 0
0.161622 0.131007 0
0.159906 -0.0831164 0
0.341594 0.085582 0
0.363486 -0.0614271 0
0.159906 -0.0831164 0
0.140574 -0.241271 0
0.363486 -0.0614271 0
0.293493 -0.156948 0
0 0 0
0 0 0
-0.200025 0.0163306 0
-0.182393 -0.0282896 0
0 0 0
0 0 0
-0.182393 -0.0282896 0
-0.126204 -0.0322624 0
-0.200025 0.0163306 0
-0.182393 -0.0282896 0
-0.0684364 -0.00780419 0
-0.0530428 -0.0468054 0
-0.182393 -0.0282896 0
-0.126204 -0.0322624 0
-0.0530428 -0.0468054 0
-0.0497866 -0.0888938 0
-0.0684364 -0.00780419 0
-0.0530428 -0.0468054 0
-0.12222 -0.123797 0
-0.0291982 -0.059957 0
-0.0530428 -0.0468054 0
-0.0497866 -0.0888938 0
-0.0291982 -0.059957 0
-0.0194078 -0.0939081 0
-0.12222 -0.123797 0
-0.0291982 -0.059957 0
-0.0822946 -0.228238 0
-0.0125275 -0.1441 0
-0.0291982 -0.059957 0
-0.0194078 -0.0939081 0
-0.0125275 -0.1441 0
0.0144724 -0.0525897 0
-0.0822946 -0.228238 0
-0.0125275 -0.1441 0
0.140574 -0.241271 0
0.0954881 -0.161674 0
-0.0125275 -0.1441 0
0.0144724 -0.0525897 0
0.0954881 -0.161674 0
0.101387 -0.0761045 0
0.140574 -0.241271 0
0.0954881 -0.161674 0
0.293493 -0.156948 0
0.201877 -0.0851503 0
0.0954881 -0.161674 0
0.101387 -0.0761045 0
0.201877 -0.0851503 0
0.105512 -0.0427367 0
0 0 0
0 0 0
-0.126204 -0.0322624 0
-0.0261471 -0.0794981 0
0 0 0
0 0 0
-0.0261471 -0.0794981 0
0.0977351 -0.0590472 0
-0.126204 -0.0322624 0
-0.0261471 -0.0794981 0
-0.0497866 -0.0888938 0
-0.00721707 -0.193459 0
-0.0261471 -0.0794981 0
0.0977351 -0.0590472 0
-0.00721707 -0.193459 0
-0.0243659 -0.0708389 0
-0.0497866 -0.0888938 0
-0.00721707 -0.193459 0
-0.0194078 -0.0939081 0
-0.0526949 -0.199532 0
-0.00721707 -0.193459 0
-0.0243659 -0.0708389 0
-0.0526949 -0.199532 0
-0.118983 0.0333042 0
-0.0194078 -0.0939081 0
-0.0526949 -0.199532 0
0.0144724 -0.0525897 0
-0.0194699 -0.162926 0
-0.0526949 -0.199532 0
-0.118983 0.0333042 0
-0.0194699 -0.162926 0
0.0668661 -0.0208863 0
0 0 0
0 0 0
0.0977351 -0.0590472 0
0.132736 0.0226764 0
0 0 0
0 0 0
0.132736 0.0226764 0
0.109291 0.0090582 0
0.0977351 -0.0590472 0
0.132736 0.0226764 0
-0.0243659 -0.0708389 0
-0.133067 0.111781 0
0.132736 0.0226764 0
0.109291 0.0090582 0
-0.133067 0.111781 0
-0.230114 0.0505837 0
-0.0243659 -0.0708389 0
-0.133067 0.111781 0
-0.118983 0.0333042 0
-0.165676 0.179067 0
-0.133067 0.111781 0
-0.230114 0.0505837 0
-0.165676 0.179067 0
-0.182993 0.113141 0
-0.118983 0.0333042 0
-0.165676 0.179067 0
0.0668661 -0.0208863 0
0.143122 0.201644 0
-0.165676 0.179067 0
-0.182993 0.113141 0
0.143122 0.201644 0
0.162925 0.109175 0
0 0 0
0 0 0
0.109291 0.0090582 0
0.121983 -0.0123189 0
0 0 0
0 0 0
0.121983 -0.0123189 0
0.21391 -0.0935849 0
0.109291 0.0090582 0
0.121983 -0.0123189 0
-0.230114 0.0505837 0
-0.239508 -0.0554232 0
0.121983 -0.0123189 0
0.21391 -0.0935849 0
-0.239508 -0.0554232 0
-0.245738 -0.152426 0
-0.230114 0.0505837 0
-0.239508 -0.0554232 0
-0.182993 0.113141 0
-0.194771 -0.0988292 0
-0.239508 -0.0554232 0
-0.245738 -0.152426 0
-0.194771 -0.0988292 0
-0.371802 0.0895497 0
-0.182993 0.113141 0
-0.194771 -0.0988292 0
0.162925 0.109175 0
-0.0125941 0.134842 0
-0.194771 -0.0988292 0
-0.371802 0.0895497 0
-0.0125941 0.134842 0
-0.444822 0.571564 0
0 0 0
0 0 0
0.21391 -0.0935849 0
0.251776 0.0475019 0
0 0 0
0 0 0
0.251776 0.0475019 0
0.863641 -0.760983 0
0.21391 -0.0935849 0
0.251776 0.0475019 0
-0.245738 -0.152426 0
-0.132619 -0.0720748 0
0.251776 0.0475019 0
0.863641 -0.760983 0
-0.132619 -0.0720748 0
-0.228069 -1.23597 0
-0.245738 -0.152426 0
-0.132619 -0.0720748 0
-0.371802 0.0895497 0
-1.00445 0.263749 0
-0.132619 -0.0720748 0
-0.228069 -1.23597 0
-1.00445 0.263749 0
-1.54543 -0.842031 0
-0.371802 0.0895497 0
-1.00445 0.263749 0
-0.444822 0.571564 0
-0.234656 0.28288 0
-1.00445 0.263749 0
-1.54543 -0.842031 0
-0.234656 0.28288 0
0.407632 -0.959186 0
0 0 0
0.0885875 0.0066852 0
0 0 0
0.123679 0.0288671 0
0.0885875 0.0066852 0
0.169029 0.0223785 0
0.123679 0.0288671 0
0.0971722 -0.0223676 0
0 0 0
0.123679 0.0288671 0
0 0 0
0.0857958 -0.0772903 0
0.123679 0.0288671 0
0.0971722 -0.0223676 0
0.0857958 -0.0772903 0
-0.0247462 -0.200122 0
0 0 0
0.0857958 -0.0772903 0
0 0 0
-0.016175 -0.0512761 0
0.0857958 -0.0772903 0
-0.0247462 -0.200122 0
-0.016175 -0.0512761 0
-0.104163 -0.133755 0
0 0 0
-0.016175 -0.0512761 0
0 0 0
-0.106994 -0.0615674 0
-0.016175 -0.0512761 0
-0.104163 -0.133755 0
-0.106994 -0.0615674 0
-0.133239 -0.111894 0
0 0 0
-0.106994 -0.0615674 0
0 0 0
-0.161252 -0.0111775 0
-0.106994 -0.0615674 0
-0.133239 -0.111894 0
-0.161252 -0.0111775 0
-0.1184 -0.00263419 0
0 0 0
-0.161252 -0.0111775 0
0 0 0
-0.172713 -0.00887301 0
-0.161252 -0.0111775 0
-0.1184 -0.00263419 0
-0.172713 -0.00887301 0
-0.0800746 0.0193684 0
0 0 0
-0.172713 -0.00887301 0
0 0 0
-0.152381 0.0256844 0
-0.172713 -0.00887301 0
-0.0800746 0.0193684 0
-0.152381 0.0256844 0
-0.0628926 0.0452275 0
0 0 0
-0.152381 0.0256844 0
0 0 0
-0.109987 0.0200125 0
-0.152381 0.0256844 0
-0.0628926 0.0452275 0
-0.109987 0.0200125 0
-0.0554163 0.0643888 0
0 0 0
-0.109987 0.0200125 0
0 0 0
-0.0265375 0.0738349 0
-0.109987 0.0200125 0
-0.0554163 0.0643888 0
-0.0265375 0.0738349 0
-0.026421 0.16536 0
0 0 0
-0.0265375 0.0738349 0
0 0 0
0.0996808 0.0687601 0
-0.0265375 0.0738349 0
-0.026421 0.16536 0
0.0996808 0.0687601 0
-0.0551435 0.0925233 0
0 0 0
0.0996808 0.0687601 0
0 0 0
0.171652 0.0125962 0
0.0996808 0.0687601 0
-0.0551435 0.0925233 0
0.171652 0.0125962 0
-0.141863 -0.019808 0
0 0 0
0.171652 0.0125962 0
0 0 0
0.181987 -0.00518511 0
0.171652 0.0125962 0
-0.141863 -0.019808 0
0.181987 -0.00518511 0
-0.188364 -0.0085761 0
0 0 0
0.181987 -0.00518511 0
0 0 0
0.170109 -0.0172821 0
0.181987 -0.00518511 0
-0.188364 -0.0085761 0
0.170109 -0.0172821 0
-0.157565 0.00417911 0
0 0 0
0.170109 -0.0172821 0
0 0 0
0.174228 0.0223773 0
0.170109 -0.0172821 0
-0.157565 0.00417911 0
0.174228 0.0223773 0
-0.148397 0.0168467 0
0 0 0
0.174228 0.0223773 0
0 0 0
0.159193 -0.0376028 0
0.174228 0.0223773 0
-0.148397 0.0168467 0
0.159193 -0.0376028 0
-0.0889216 0.0203233 0
0 0 0
0.159193 -0.0376028 0
0 0 0
0.614935 0.569191 0
0.159193 -0.0376028 0
-0.0889216 0.0203233 0
0.614935 0.569191 0
-0.190112 0.918533 0
0.169029 0.0223785 0
0.0525583 0.00293224 0
0.0971722 -0.0223676 0
-0.109887 -0.273887 0
0.0525583 0.00293224 0
-0.0558081 -0.0839434 0
-0.109887 -0.273887 0
-0.0961146 -0.424999 0
0.0971722 -0.0223676 0
-0.109887 -0.273887 0
-0.0247462 -0.200122 0
-0.242756 -0.249761 0
-0.109887 -0.273887 0
-0.0961146 -0.424999 0
-0.242756 -0.249761 0
-0.108971 -0.271608 0
-0.0247462 -0.200122 0
-0.242756 -0.249761 0
-0.104163 -0.133755 0
-0.273314 -0.212229 0
-0.242756 -0.249761 0
-0.108971 -0.271608 0
-0.273314 -0.212229 0
-0.0765547 -0.187651 0
-0.104163 -0.133755 0
-0.273314 -0.212229 0
-0.133239 -0.111894 0
-0.262977 -0.0576834 0
-0.273314 -0.212229 0
-0.0765547 -0.187651 0
-0.262977 -0.0576834 0
-0.0683721 -0.0632893 0
-0.133239 -0.111894 0
-0.262977 -0.0576834 0
-0.1184 -0.00263419 0
-0.198306 0.0372611 0
-0.262977 -0.0576834 0
-0.0683721 -0.0632893 0
-0.198306 0.0372611 0
-0.108367 0.0717927 0