# vtk DataFile Version 3.0
#This file was generated by the deal.II library on 2026/3/26 at 11:16:24
ASCII
DATASET UNSTRUCTURED_GRID

POINTS 3648 double
0 0 0
0.214286 0 0
0 0.25 0
0.214286 0.25 0
0 0.25 0
0.214286 0.25 0
0 0.5 0
0.214286 0.5 0
0.214286 0 0
0.428571 0 0
0.214286 0.25 0
0.428571 0.25 0
0.214286 0.25 0
0.428571 0.25 0
0.214286 0.5 0
0.428571 0.5 0
0.428571 0 0
0.642857 0 0
0.428571 0.25 0
0.642857 0.25 0
0.428571 0.25 0
0.642857 0.25 0
0.428571 0.5 0
0.642857 0.5 0
0.428571 0.5 0
0.642857 0.5 0
0.428571 0.75 0
0.642857 0.75 0
0.642857 0 0
0.857143 0 0
0.642857 0.25 0
0.857143 0.25 0
0.642857 0.25 0
0.857143 0.25 0
0.642857 0.5 0
0.857143 0.5 0
0.642857 0.5 0
0.857143 0.5 0
0.642857 0.75 0
0.857143 0.75 0
0.857143 0 0
1.07143 0 0
0.857143 0.25 0
1.07143 0.25 0
0.857143 0.25 0
1.07143 0.25 0
0.857143 0.5 0
1.07143 0.5 0
0.857143 0.5 0
1.07143 0.5 0
0.857143 0.75 0
1.07143 0.75 0
1.07143 0 0
1.28571 0 0
1.07143 0.25 0
1.28571 0.25 0
1.07143 0.25 0
1.28571 0.25 0
1.07143 0.5 0
1.28571 0.5 0
1.07143 0.5 0
1.28571 0.5 0
1.07143 0.75 0
1.28571 0.75 0
1.28571 0 0
1.5 0 0
1.28571 0.25 0
1.5 0.25 0
1.28571 0.25 0
1.5 0.25 0
1.28571 0.5 0
1.5 0.5 0
1.5 0 0
1.71429 0 0
1.5 0.25 0
1.71429 0.25 0
1.5 0.25 0
1.71429 0.25 0
1.5 0.5 0
1.71429 0.5 0
1.71429 0 0
1.92857 0 0
1.71429 0.25 0
1.92857 0.25 0
1.71429 0.25 0
1.92857 0.25 0
1.71429 0.5 0
1.92857 0.5 0
1.92857 0 0
2.14286 0 0
1.92857 0.25 0
2.14286 0.25 0
1.92857 0.25 0
2.14286 0.25 0
1.92857 0.5 0
2.14286 0.5 0
0 3 0
0 2.75 0
0.214286 3 0
0.214286 2.75 0
0.214286 3 0
0.214286 2.75 0
0.428571 3 0
0.428571 2.75 0
0.428571 3 0
0.428571 2.75 0
0.642857 3 0
0.642857 2.75 0
0.642857 3 0
0.642857 2.75 0
0.857143 3 0
0.857143 2.75 0
0.857143 3 0
0.857143 2.75 0
1.07143 3 0
1.07143 2.75 0
1.07143 3 0
1.07143 2.75 0
1.28571 3 0
1.28571 2.75 0
1.28571 3 0
1.28571 2.75 0
1.5 3 0
1.5 2.75 0
1.5 3 0
1.5 2.75 0
1.71429 3 0
1.71429 2.75 0
1.71429 3 0
1.71429 2.75 0
1.92857 3 0
1.92857 2.75 0
1.92857 3 0
1.92857 2.75 0
2.14286 3 0
2.14286 2.75 0
0 2.75 0
0 2.5 0
0.214286 2.75 0
0.214286 2.5 0
0.214286 2.75 0
0.214286 2.5 0
0.428571 2.75 0
0.428571 2.5 0
0.428571 2.75 0
0.428571 2.5 0
0.642857 2.75 0
0.642857 2.5 0
0.642857 2.75 0
0.642857 2.5 0
0.857143 2.75 0
0.857143 2.5 0
0.857143 2.75 0
0.857143 2.5 0
1.07143 2.75 0
1.07143 2.5 0
1.07143 2.75 0
1.07143 2.5 0
1.28571 2.75 0
1.28571 2.5 0
1.28571 2.75 0
1.28571 2.5 0
1.5 2.75 0
1.5 2.5 0
1.5 2.75 0
1.5 2.5 0
1.71429 2.75 0
1.71429 2.5 0
1.71429 2.75 0
1.71429 2.5 0
1.92857 2.75 0
1.92857 2.5 0
1.92857 2.75 0
1.92857 2.5 0
2.14286 2.75 0
2.14286 2.5 0
0.428571 2.5 0
0.428571 2.25 0
0.642857 2.5 0
0.642857 2.25 0
0.642857 2.5 0
0.642857 2.25 0
0.857143 2.5 0
0.857143 2.25 0
0.857143 2.5 0
0.857143 2.25 0
1.07143 2.5 0
1.07143 2.25 0
1.07143 2.5 0
1.07143 2.25 0
1.28571 2.5 0
1.28571 2.25 0
0.214286 0.75 0
0.321429 0.75 0
0.214286 0.875 0
0.321429 0.875 0
0.321429 0.75 0
0.428571 0.75 0
0.321429 0.875 0
0.428571 0.875 0
0.214286 0.875 0
0.321429 0.875 0
0.214286 1 0
0.321429 1 0
0.321429 0.875 0
0.428571 0.875 0
0.321429 1 0
0.428571 1 0
0.428571 0.75 0
0.535714 0.75 0
0.428571 0.875 0
0.535714 0.875 0
0.535714 0.75 0
0.642857 0.75 0
0.535714 0.875 0
0.642857 0.875 0
0.428571 0.875 0
0.535714 0.875 0
0.428571 1 0
0.535714 1 0
0.535714 0.875 0
0.642857 0.875 0
0.535714 1 0
0.642857 1 0
0.642857 0.75 0
0.75 0.75 0
0.642857 0.875 0
0.75 0.875 0
0.75 0.75 0
0.857143 0.75 0
0.75 0.875 0
0.857143 0.875 0
0.642857 0.875 0
0.75 0.875 0
0.642857 1 0
0.75 1 0
0.75 0.875 0
0.857143 0.875 0
0.75 1 0
0.857143 1 0
0.857143 0.75 0
0.964286 0.75 0
0.857143 0.875 0
0.964286 0.875 0
0.964286 0.75 0
1.07143 0.75 0
0.964286 0.875 0
1.07143 0.875 0
0.857143 0.875 0
0.964286 0.875 0
0.857143 1 0
0.964286 1 0
0.964286 0.875 0
1.07143 0.875 0
0.964286 1 0
1.07143 1 0
1.07143 0.75 0
1.17857 0.75 0
1.07143 0.875 0
1.17857 0.875 0
1.17857 0.75 0
1.28571 0.75 0
1.17857 0.875 0
1.28571 0.875 0
1.07143 0.875 0
1.17857 0.875 0
1.07143 1 0
1.17857 1 0
1.17857 0.875 0
1.28571 0.875 0
1.17857 1 0
1.28571 1 0
0.214286 2 0
0.214286 1.875 0
0.321429 2 0
0.321429 1.875 0
0.214286 1.875 0
0.214286 1.75 0
0.321429 1.875 0
0.321429 1.75 0
0.321429 2 0
0.321429 1.875 0
0.428571 2 0
0.428571 1.875 0
0.321429 1.875 0
0.321429 1.75 0
0.428571 1.875 0
0.428571 1.75 0
0.428571 2 0
0.428571 1.875 0
0.535714 2 0
0.535714 1.875 0
0.428571 1.875 0
0.428571 1.75 0
0.535714 1.875 0
0.535714 1.75 0
0.535714 2 0
0.535714 1.875 0
0.642857 2 0
0.642857 1.875 0
0.535714 1.875 0
0.535714 1.75 0
0.642857 1.875 0
0.642857 1.75 0
0.642857 2 0
0.642857 1.875 0
0.75 2 0
0.75 1.875 0
0.642857 1.875 0
0.642857 1.75 0
0.75 1.875 0
0.75 1.75 0
0.75 2 0
0.75 1.875 0
0.857143 2 0
0.857143 1.875 0
0.75 1.875 0
0.75 1.75 0
0.857143 1.875 0
0.857143 1.75 0
0.857143 2 0
0.857143 1.875 0
0.964286 2 0
0.964286 1.875 0
0.857143 1.875 0
0.857143 1.75 0
0.964286 1.875 0
0.964286 1.75 0
0.964286 2 0
0.964286 1.875 0
1.07143 2 0
1.07143 1.875 0
0.964286 1.875 0
0.964286 1.75 0
1.07143 1.875 0
1.07143 1.75 0
1.07143 2 0
1.07143 1.875 0
1.17857 2 0
1.17857 1.875 0
1.07143 1.875 0
1.07143 1.75 0
1.17857 1.875 0
1.17857 1.75 0
1.17857 2 0
1.17857 1.875 0
1.28571 2 0
1.28571 1.875 0
1.17857 1.875 0
1.17857 1.75 0
1.28571 1.875 0
1.28571 1.75 0
0.214286 1.25 0
0.214286 1.125 0
0.321429 1.25 0
0.321429 1.125 0
0.214286 1.125 0
0.214286 1 0
0.321429 1.125 0
0.321429 1 0
0.321429 1.25 0
0.321429 1.125 0
0.428571 1.25 0
0.428571 1.125 0
0.321429 1.125 0
0.321429 1 0
0.428571 1.125 0
0.428571 1 0
0.428571 1.25 0
0.428571 1.125 0
0.535714 1.25 0
0.535714 1.125 0
0.428571 1.125 0
0.428571 1 0
0.535714 1.125 0
0.535714 1 0
0.535714 1.25 0
0.535714 1.125 0
0.642857 1.25 0
0.642857 1.125 0
0.535714 1.125 0
0.535714 1 0
0.642857 1.125 0
0.642857 1 0
0.642857 1.25 0
0.642857 1.125 0
0.75 1.25 0
0.75 1.125 0
0.642857 1.125 0
0.642857 1 0
0.75 1.125 0
0.75 1 0
0.75 1.25 0
0.75 1.125 0
0.857143 1.25 0
0.857143 1.125 0
0.75 1.125 0
0.75 1 0
0.857143 1.125 0
0.857143 1 0
0.857143 1.25 0
0.857143 1.125 0
0.964286 1.25 0
0.964286 1.125 0
0.857143 1.125 0
0.857143 1 0
0.964286 1.125 0
0.964286 1 0
0.964286 1.25 0
0.964286 1.125 0
1.07143 1.25 0
1.07143 1.125 0
0.964286 1.125 0
0.964286 1 0
1.07143 1.125 0
1.07143 1 0
1.07143 1.25 0
1.07143 1.125 0
1.17857 1.25 0
1.17857 1.125 0
1.07143 1.125 0
1.07143 1 0
1.17857 1.125 0
1.17857 1 0
1.17857 1.25 0
1.17857 1.125 0
1.28571 1.25 0
1.28571 1.125 0
1.17857 1.125 0
1.17857 1 0
1.28571 1.125 0
1.28571 1 0
0.214286 2.25 0
0.214286 2.125 0
0.321429 2.25 0
0.321429 2.125 0
0.214286 2.125 0
0.214286 2 0
0.321429 2.125 0
0.321429 2 0
0.321429 2.25 0
0.321429 2.125 0
0.428571 2.25 0
0.428571 2.125 0
0.321429 2.125 0
0.321429 2 0
0.428571 2.125 0
0.428571 2 0
0.428571 2.25 0
0.428571 2.125 0
0.535714 2.25 0
0.535714 2.125 0
0.428571 2.125 0
0.428571 2 0
0.535714 2.125 0
0.535714 2 0
0.535714 2.25 0
0.535714 2.125 0
0.642857 2.25 0
0.642857 2.125 0
0.535714 2.125 0
0.535714 2 0
0.642857 2.125 0
0.642857 2 0
0.642857 2.25 0
0.642857 2.125 0
0.75 2.25 0
0.75 2.125 0
0.642857 2.125 0
0.642857 2 0
0.75 2.125 0
0.75 2 0
0.75 2.25 0
0.75 2.125 0
0.857143 2.25 0
0.857143 2.125 0
0.75 2.125 0
0.75 2 0
0.857143 2.125 0
0.857143 2 0
0.857143 2.25 0
0.857143 2.125 0
0.964286 2.25 0
0.964286 2.125 0
0.857143 2.125 0
0.857143 2 0
0.964286 2.125 0
0.964286 2 0
0.964286 2.25 0
0.964286 2.125 0
1.07143 2.25 0
1.07143 2.125 0
0.964286 2.125 0
0.964286 2 0
1.07143 2.125 0
1.07143 2 0
1.07143 2.25 0
1.07143 2.125 0
1.17857 2.25 0
1.17857 2.125 0
1.07143 2.125 0
1.07143 2 0
1.17857 2.125 0
1.17857 2 0
1.17857 2.25 0
1.17857 2.125 0
1.28571 2.25 0
1.28571 2.125 0
1.17857 2.125 0
1.17857 2 0
1.28571 2.125 0
1.28571 2 0
0 0.5 0
0.107143 0.5 0
0 0.625 0
0.107143 0.625 0
0.107143 0.5 0
0.214286 0.5 0
0.107143 0.625 0
0.214286 0.625 0
0 0.625 0
0.107143 0.625 0
0 0.75 0
0.107143 0.75 0
0.107143 0.625 0
0.214286 0.625 0
0.107143 0.75 0
0.214286 0.75 0
0.214286 0.5 0
0.321429 0.5 0
0.214286 0.625 0
0.321429 0.625 0
0.321429 0.5 0
0.428571 0.5 0
0.321429 0.625 0
0.428571 0.625 0
0.214286 0.625 0
0.321429 0.625 0
0.214286 0.75 0
0.321429 0.75 0
0.321429 0.625 0
0.428571 0.625 0
0.321429 0.75 0
0.428571 0.75 0
1.28571 0.5 0
1.39286 0.5 0
1.28571 0.625 0
1.39286 0.625 0
1.39286 0.5 0
1.5 0.5 0
1.39286 0.625 0
1.5 0.625 0
1.28571 0.625 0
1.39286 0.625 0
1.28571 0.75 0
1.39286 0.75 0
1.39286 0.625 0
1.5 0.625 0
1.39286 0.75 0
1.5 0.75 0
1.28571 0.75 0
1.39286 0.75 0
1.28571 0.875 0
1.39286 0.875 0
1.39286 0.75 0
1.5 0.75 0
1.39286 0.875 0
1.5 0.875 0
1.28571 0.875 0
1.39286 0.875 0
1.28571 1 0
1.39286 1 0
1.39286 0.875 0
1.5 0.875 0
1.39286 1 0
1.5 1 0
1.5 0.5 0
1.60714 0.5 0
1.5 0.625 0
1.60714 0.625 0
1.60714 0.5 0
1.71429 0.5 0
1.60714 0.625 0
1.71429 0.625 0
1.5 0.625 0
1.60714 0.625 0
1.5 0.75 0
1.60714 0.75 0
1.60714 0.625 0
1.71429 0.625 0
1.60714 0.75 0
1.71429 0.75 0
1.71429 0.5 0
1.82143 0.5 0
1.71429 0.625 0
1.82143 0.625 0
1.82143 0.5 0
1.92857 0.5 0
1.82143 0.625 0
1.92857 0.625 0
1.71429 0.625 0
1.82143 0.625 0
1.71429 0.75 0
1.82143 0.75 0
1.82143 0.625 0
1.92857 0.625 0
1.82143 0.75 0
1.92857 0.75 0
1.92857 0.5 0
2.03571 0.5 0
1.92857 0.625 0
2.03571 0.625 0
2.03571 0.5 0
2.14286 0.5 0
2.03571 0.625 0
2.14286 0.625 0
1.92857 0.625 0
2.03571 0.625 0
1.92857 0.75 0
2.03571 0.75 0
2.03571 0.625 0
2.14286 0.625 0
2.03571 0.75 0
2.14286 0.75 0
2.14286 0 0
2.25 0 0
2.14286 0.125 0
2.25 0.125 0
2.25 0 0
2.35714 0 0
2.25 0.125 0
2.35714 0.125 0
2.14286 0.125 0
2.25 0.125 0
2.14286 0.25 0
2.25 0.25 0
2.25 0.125 0
2.35714 0.125 0
2.25 0.25 0
2.35714 0.25 0
2.14286 0.25 0
2.25 0.25 0
2.14286 0.375 0
2.25 0.375 0
2.25 0.25 0
2.35714 0.25 0
2.25 0.375 0
2.35714 0.375 0
2.14286 0.375 0
2.25 0.375 0
2.14286 0.5 0
2.25 0.5 0
2.25 0.375 0
2.35714 0.375 0
2.25 0.5 0
2.35714 0.5 0
2.14286 0.5 0
2.25 0.5 0
2.14286 0.625 0
2.25 0.625 0
2.25 0.5 0
2.35714 0.5 0
2.25 0.625 0
2.35714 0.625 0
2.14286 0.625 0
2.25 0.625 0
2.14286 0.75 0
2.25 0.75 0
2.25 0.625 0
2.35714 0.625 0
2.25 0.75 0
2.35714 0.75 0
2.35714 0 0
2.46429 0 0
[...]
POINT_DATA 3648
VECTORS velocity double
0 0 0
0 0 0
0 0 0
-0.0115489 0.0129952 0
0 0 0
-0.0115489 0.0129952 0
0 0 0
-0.00157493 0.0284533 0
0 0 0
0 0 0
-0.0115489 0.0129952 0
-0.0343131 0.0133425 0
-0.0115489 0.0129952 0
-0.0343131 0.0133425 0
-0.00157493 0.0284533 0
-0.0017658 0.0250218 0
0 0 0
0 0 0
-0.0343131 0.0133425 0
-0.0523546 0.00809427 0
-0.0343131 0.0133425 0
-0.0523546 0.00809427 0
-0.0017658 0.0250218 0
-0.00269751 0.0185921 0
-0.0017658 0.0250218 0
-0.00269751 0.0185921 0
0.0206208 0.0158764 0
0.0357998 0.0116509 0
0 0 0
0 0 0
-0.0523546 0.00809427 0
-0.0586478 -0.000426821 0
-0.0523546 0.00809427 0
-0.0586478 -0.000426821 0
-0.00269751 0.0185921 0
0.00324735 -0.0115943 0
-0.00269751 0.0185921 0
0.00324735 -0.0115943 0
0.0357998 0.0116509 0
0.0347819 -0.0102931 0
0 0 0
0 0 0
-0.0586478 -0.000426821 0
-0.0485094 -0.0110843 0
-0.0586478 -0.000426821 0
-0.0485094 -0.0110843 0
0.00324735 -0.0115943 0
0.00717761 -0.0161879 0
0.00324735 -0.0115943 0
0.00717761 -0.0161879 0
0.0347819 -0.0102931 0
0.0176567 -0.00113565 0
0 0 0
0 0 0
-0.0485094 -0.0110843 0
-0.00765303 -0.0388543 0
-0.0485094 -0.0110843 0
-0.00765303 -0.0388543 0
0.00717761 -0.0161879 0
-0.0201355 -0.049714 0
0.00717761 -0.0161879 0
-0.0201355 -0.049714 0
0.0176567 -0.00113565 0
0.00832912 -0.0226089 0
0 0 0
0 0 0
-0.00765303 -0.0388543 0
0.0727088 -0.0560503 0
-0.00765303 -0.0388543 0
0.0727088 -0.0560503 0
-0.0201355 -0.049714 0
-0.0672381 -0.0821845 0
0 0 0
0 0 0
0.0727088 -0.0560503 0
0.081832 0.0457605 0
0.0727088 -0.0560503 0
0.081832 0.0457605 0
-0.0672381 -0.0821845 0
-0.0662038 0.0577708 0
0 0 0
0 0 0
0.081832 0.0457605 0
0.0280677 0.016735 0
0.081832 0.0457605 0
0.0280677 0.016735 0
-0.0662038 0.0577708 0
-0.0422942 0.0403419 0
0 0 0
0 0 0
0.0280677 0.016735 0
-0.0104142 0.0269472 0
0.0280677 0.016735 0
-0.0104142 0.0269472 0
-0.0422942 0.0403419 0
-0.0117934 0.0122232 0
0 0 0
0 0 0
0 0 0
-0.0116446 -0.0131013 0
0 0 0
-0.0116446 -0.0131013 0
0 0 0
-0.0345482 -0.0133952 0
0 0 0
-0.0345482 -0.0133952 0
0 0 0
-0.0525513 -0.00800596 0
0 0 0
-0.0525513 -0.00800596 0
0 0 0
-0.058673 0.000529744 0
0 0 0
-0.058673 0.000529744 0
0 0 0
-0.0484733 0.0110566 0
0 0 0
-0.0484733 0.0110566 0
0 0 0
-0.00758137 0.0389419 0
0 0 0
-0.00758137 0.0389419 0
0 0 0
0.0728377 0.0560362 0
0 0 0
0.0728377 0.0560362 0
0 0 0
0.0819355 -0.0457665 0
0 0 0
0.0819355 -0.0457665 0
0 0 0
0.0282211 -0.0166812 0
0 0 0
0.0282211 -0.0166812 0
0 0 0
-0.0103159 -0.0270582 0
0 0 0
0 0 0
-0.0116446 -0.0131013 0
-0.00158643 -0.0286887 0
-0.0116446 -0.0131013 0
-0.00158643 -0.0286887 0
-0.0345482 -0.0133952 0
-0.00174051 -0.0250702 0
-0.0345482 -0.0133952 0
-0.00174051 -0.0250702 0
-0.0525513 -0.00800596 0
-0.00262473 -0.0184054 0
-0.0525513 -0.00800596 0
-0.00262473 -0.0184054 0
-0.058673 0.000529744 0
0.00336563 0.0118616 0
-0.058673 0.000529744 0
0.00336563 0.0118616 0
-0.0484733 0.0110566 0
0.00735581 0.0161335 0
-0.0484733 0.0110566 0
0.00735581 0.0161335 0
-0.00758137 0.0389419 0
-0.0200981 0.0497032 0
-0.00758137 0.0389419 0
-0.0200981 0.0497032 0
0.0728377 0.0560362 0
-0.0672915 0.0822068 0
0.0728377 0.0560362 0
-0.0672915 0.0822068 0
0.0819355 -0.0457665 0
-0.0662128 -0.0577755 0
0.0819355 -0.0457665 0
-0.0662128 -0.0577755 0
0.0282211 -0.0166812 0
-0.0423069 -0.04024 0
0.0282211 -0.0166812 0
-0.0423069 -0.04024 0
-0.0103159 -0.0270582 0
-0.0118094 -0.0124429 0
-0.00174051 -0.0250702 0
0.0207636 -0.0159411 0
-0.00262473 -0.0184054 0
0.0358687 -0.01148 0
-0.00262473 -0.0184054 0
0.0358687 -0.01148 0
0.00336563 0.0118616 0
0.0347172 0.010459 0
0.00336563 0.0118616 0
0.0347172 0.010459 0
0.00735581 0.0161335 0
0.0174448 0.00106195 0
0.00735581 0.0161335 0
0.0174448 0.00106195 0
-0.0200981 0.0497032 0
0.00818613 0.0225396 0
0.00658702 0.0210447 0
0.0152508 0.0227408 0
0.00342335 0.0117528 0
0.0106595 0.0133362 0
0.0152508 0.0227408 0
0.0206208 0.0158764 0
0.0106595 0.0133362 0
0.0195169 0.00887088 0
0.00342335 0.0117528 0
0.0106595 0.0133362 0
0.0520448 -0.00337076 0
0.074111 -0.00501576 0
0.0106595 0.0133362 0
0.0195169 0.00887088 0
0.074111 -0.00501576 0
0.0930198 -0.00490207 0
0.0206208 0.0158764 0
0.0276859 0.0132789 0
0.0195169 0.00887088 0
0.0248922 0.00601991 0
0.0276859 0.0132789 0
0.0357998 0.0116509 0
0.0248922 0.00601991 0
0.0296533 0.00422792 0
0.0195169 0.00887088 0
0.0248922 0.00601991 0
0.0930198 -0.00490207 0
0.10938 -0.00575899 0
0.0248922 0.00601991 0
0.0296533 0.00422792 0
0.10938 -0.00575899 0
0.123308 -0.00634196 0
0.0357998 0.0116509 0
0.0398201 0.00153803 0
0.0296533 0.00422792 0
0.0330663 0.000797337 0
0.0398201 0.00153803 0
0.0347819 -0.0102931 0
0.0330663 0.000797337 0
0.0327542 -0.00265743 0
0.0296533 0.00422792 0
0.0330663 0.000797337 0
0.123308 -0.00634196 0
0.135444 -0.00747255 0
0.0330663 0.000797337 0
0.0327542 -0.00265743 0
0.135444 -0.00747255 0
0.146315 -0.00748346 0
0.0347819 -0.0102931 0
0.0257713 -0.00681011 0
0.0327542 -0.00265743 0
0.0317231 -0.00235235 0
0.0257713 -0.00681011 0
0.0176567 -0.00113565 0
0.0317231 -0.00235235 0
0.0354914 -0.000282545 0
0.0327542 -0.00265743 0
0.0317231 -0.00235235 0
0.146315 -0.00748346 0
0.15598 -0.00852211 0
0.0317231 -0.00235235 0
0.0354914 -0.000282545 0
0.15598 -0.00852211 0
0.164108 -0.00896278 0
0.0176567 -0.00113565 0
0.0114075 -0.0102135 0
0.0354914 -0.000282545 0
0.0385102 -0.00697475 0
0.0114075 -0.0102135 0
0.00832912 -0.0226089 0
0.0385102 -0.00697475 0
0.0309654 -0.0129248 0
0.0354914 -0.000282545 0
0.0385102 -0.00697475 0
0.164108 -0.00896278 0
0.170797 -0.0103658 0
0.0385102 -0.00697475 0
0.0309654 -0.0129248 0
0.170797 -0.0103658 0
0.17663 -0.00777704 0
0.0520525 0.00337834 0
0.240627 0.0132705 0
0.074147 0.0050154 0
0.233587 0.0122841 0
0.240627 0.0132705 0
0.157987 0.00658896 0
0.233587 0.0122841 0
0.153856 0.00623222 0
0.074147 0.0050154 0
0.233587 0.0122841 0
0.0930849 0.00490364 0
0.226985 0.0112197 0
0.233587 0.0122841 0
0.153856 0.00623222 0
0.226985 0.0112197 0
0.150185 0.00567105 0
0.0930849 0.00490364 0
0.226985 0.0112197 0
0.109475 0.00576993 0
0.22071 0.0102211 0
0.226985 0.0112197 0
0.150185 0.00567105 0
0.22071 0.0102211 0
0.146969 0.00529174 0
0.109475 0.00576993 0
0.22071 0.0102211 0
0.123437 0.00636541 0
0.214673 0.00997692 0
0.22071 0.0102211 0
0.146969 0.00529174 0
0.214673 0.00997692 0
0.144065 0.00513941 0
0.123437 0.00636541 0
0.214673 0.00997692 0
0.135599 0.00751541 0
0.208655 0.00953442 0
0.214673 0.00997692 0
0.144065 0.00513941 0
0.208655 0.00953442 0
0.141429 0.00495041 0
0.135599 0.00751541 0
0.208655 0.00953442 0
0.146493 0.00752674 0
0.202486 0.00946913 0
0.208655 0.00953442 0
0.141429 0.00495041 0
0.202486 0.00946913 0
0.139025 0.00477884 0
0.146493 0.00752674 0
0.202486 0.00946913 0
0.156181 0.00856294 0
0.196151 0.009022 0
0.202486 0.00946913 0
0.139025 0.00477884 0
0.196151 0.009022 0
0.136824 0.00455145 0
0.156181 0.00856294 0
0.196151 0.009022 0
0.164327 0.00900069 0
0.189821 0.00943258 0
0.196151 0.009022 0
0.136824 0.00455145 0
0.189821 0.00943258 0
0.134729 0.00475845 0
0.164327 0.00900069 0
0.189821 0.00943258 0
0.171025 0.010407 0
0.18339 0.00877692 0
0.189821 0.00943258 0
0.134729 0.00475845 0
0.18339 0.00877692 0
0.132811 0.004097 0
0.171025 0.010407 0
0.18339 0.00877692 0
0.176862 0.00780788 0
0.176919 0.00757419 0
0.18339 0.00877692 0
0.132811 0.004097 0
0.176919 0.00757419 0
0.131276 0.00334272 0
0.158261 -0.00659598 0
0.240574 -0.013264 0
0.154126 -0.00623863 0
0.233559 -0.0122819 0
0.240574 -0.013264 0
0.0520448 -0.00337076 0
0.233559 -0.0122819 0
0.074111 -0.00501576 0
0.154126 -0.00623863 0
0.233559 -0.0122819 0
0.150449 -0.00567419 0
0.226978 -0.0112151 0
0.233559 -0.0122819 0
0.074111 -0.00501576 0
0.226978 -0.0112151 0
0.0930198 -0.00490207 0
0.150449 -0.00567419 0
0.226978 -0.0112151 0
0.147229 -0.00529102 0
0.220726 -0.0102102 0
0.226978 -0.0112151 0
0.0930198 -0.00490207 0
0.220726 -0.0102102 0
0.10938 -0.00575899 0
0.147229 -0.00529102 0
0.220726 -0.0102102 0
0.14432 -0.00513459 0
0.21472 -0.00995554 0
0.220726 -0.0102102 0
0.10938 -0.00575899 0
0.21472 -0.00995554 0
0.123308 -0.00634196 0
0.14432 -0.00513459 0
0.21472 -0.00995554 0
0.141681 -0.00494251 0
0.208739 -0.00950744 0
0.21472 -0.00995554 0
0.123308 -0.00634196 0
0.208739 -0.00950744 0
0.135444 -0.00747255 0
0.141681 -0.00494251 0
0.208739 -0.00950744 0
0.139274 -0.00476992 0
0.202612 -0.0094394 0
0.208739 -0.00950744 0
0.135444 -0.00747255 0
0.202612 -0.0094394 0
0.146315 -0.00748346 0
0.139274 -0.00476992 0
0.202612 -0.0094394 0
0.137067 -0.00454354 0
0.196319 -0.00899738 0
0.202612 -0.0094394 0
0.146315 -0.00748346 0
0.196319 -0.00899738 0
0.15598 -0.00852211 0
0.137067 -0.00454354 0
0.196319 -0.00899738 0
0.134963 -0.00474941 0
0.190029 -0.0094092 0
0.196319 -0.00899738 0
0.15598 -0.00852211 0
0.190029 -0.0094092 0
0.164108 -0.00896278 0
0.134963 -0.00474941 0
0.190029 -0.0094092 0
0.133034 -0.00409389 0
0.183635 -0.00876081 0
0.190029 -0.0094092 0
0.164108 -0.00896278 0
0.183635 -0.00876081 0
0.170797 -0.0103658 0
0.133034 -0.00409389 0
0.183635 -0.00876081 0
0.131486 -0.00334073 0
0.1772 -0.00756135 0
0.183635 -0.00876081 0
0.170797 -0.0103658 0
0.1772 -0.00756135 0
0.17663 -0.00777704 0
0.00668924 -0.0212187 0
0.0034585 -0.0118408 0
0.0153919 -0.0228703 0
0.0107936 -0.0133915 0
0.0034585 -0.0118408 0
0.0520525 0.00337834 0
0.0107936 -0.0133915 0
0.074147 0.0050154 0
0.0153919 -0.0228703 0
0.0107936 -0.0133915 0
0.0207636 -0.0159411 0
0.0197178 -0.00893057 0
0.0107936 -0.0133915 0
0.074147 0.0050154 0
0.0197178 -0.00893057 0
0.0930849 0.00490364 0
0.0207636 -0.0159411 0
0.0197178 -0.00893057 0
0.027778 -0.0132276 0
0.0251127 -0.00601008 0
0.0197178 -0.00893057 0
0.0930849 0.00490364 0
0.0251127 -0.00601008 0
0.109475 0.00576993 0
0.027778 -0.0132276 0
0.0251127 -0.00601008 0
0.0358687 -0.01148 0
0.029786 -0.00414434 0
0.0251127 -0.00601008 0
0.109475 0.00576993 0
0.029786 -0.00414434 0
0.123437 0.00636541 0
0.0358687 -0.01148 0
0.029786 -0.00414434 0
0.0398523 -0.00136971 0
0.0330837 -0.000716116 0
0.029786 -0.00414434 0
0.123437 0.00636541 0
0.0330837 -0.000716116 0
0.135599 0.00751541 0
0.0398523 -0.00136971 0
0.0330837 -0.000716116 0
0.0347172 0.010459 0
0.0326995 0.00271772 0
0.0330837 -0.000716116 0
0.135599 0.00751541 0
0.0326995 0.00271772 0
0.146493 0.00752674 0
0.0347172 0.010459 0
0.0326995 0.00271772 0
0.025606 0.00686579 0
0.0316439 0.00237486 0
0.0326995 0.00271772 0
0.146493 0.00752674 0
0.0316439 0.00237486 0
0.156181 0.00856294 0
0.025606 0.00686579 0
0.0316439 0.00237486 0
0.0174448 0.00106195 0
0.0354631 0.000255288 0
0.0316439 0.00237486 0
0.156181 0.00856294 0
0.0354631 0.000255288 0
0.164327 0.00900069 0
0.0174448 0.00106195 0
0.0354631 0.000255288 0
0.0112026 0.0101256 0
0.0385742 0.00696137 0
0.0354631 0.000255288 0
0.164327 0.00900069 0
0.0385742 0.00696137 0
0.171025 0.010407 0
0.0112026 0.0101256 0
0.0385742 0.00696137 0
0.00818613 0.0225396 0
0.0310949 0.0129307 0
0.0385742 0.00696137 0
0.171025 0.010407 0
0.0310949 0.0129307 0
0.176862 0.00780788 0
0 0 0
-0.000355664 0.0145818 0
0 0 0
0.00118393 0.013864 0
-0.000355664 0.0145818 0
-0.00157493 0.0284533 0
0.00118393 0.013864 0
0.00273536 0.028968 0
0 0 0
0.00118393 0.013864 0
0 0 0
8.75581e-05 0.0126618 0
0.00118393 0.013864 0
0.00273536 0.028968 0
8.75581e-05 0.0126618 0
0.00658702 0.0210447 0
-0.00157493 0.0284533 0
-0.00244766 0.0266796 0
0.00273536 0.028968 0
0.00395519 0.0260165 0
-0.00244766 0.0266796 0
-0.0017658 0.0250218 0
0.00395519 0.0260165 0
0.00667248 0.0219322 0
0.00273536 0.028968 0
0.00395519 0.0260165 0
0.00658702 0.0210447 0
0.0152508 0.0227408 0
0.00395519 0.0260165 0
0.00667248 0.0219322 0
0.0152508 0.0227408 0
0.0206208 0.0158764 0
-0.0201355 -0.049714 0
-0.0426643 -0.0675818 0
-0.00947615 -0.0301816 0
-0.0304111 -0.0364719 0
-0.0426643 -0.0675818 0
-0.0672381 -0.0821845 0
-0.0304111 -0.0364719 0
-0.0615344 -0.0486377 0
-0.00947615 -0.0301816 0
-0.0304111 -0.0364719 0
0.00832912 -0.0226089 0
-0.00390951 -0.00493298 0
-0.0304111 -0.0364719 0
-0.0615344 -0.0486377 0
-0.00390951 -0.00493298 0
-0.0377689 -0.00491265 0
0.00832912 -0.0226089 0
-0.00390951 -0.00493298 0
0.0309654 -0.0129248 0
0.0290712 0.00154271 0
-0.00390951 -0.00493298 0
-0.0377689 -0.00491265 0
0.0290712 0.00154271 0
0.04599 0.00822214 0
0.0309654 -0.0129248 0
0.0290712 0.00154271 0
0.17663 -0.00777704 0
0.181085 -0.00710724 0
0.0290712 0.00154271 0
0.04599 0.00822214 0
0.181085 -0.00710724 0
0.182791 -0.00474131 0
-0.0672381 -0.0821845 0
-0.080259 -0.0103216 0
-0.0615344 -0.0486377 0
-0.0757934 -0.0108962 0
-0.080259 -0.0103216 0
-0.0662038 0.0577708 0
-0.0757934 -0.0108962 0
-0.0624465 0.025893 0
-0.0615344 -0.0486377 0
-0.0757934 -0.0108962 0
-0.0377689 -0.00491265 0
-0.0429011 -0.0311138 0
-0.0757934 -0.0108962 0
-0.0624465 0.025893 0
-0.0429011 -0.0311138 0
-0.0388921 0.0251044 0
-0.0662038 0.0577708 0
-0.0458737 0.0484792 0
-0.0624465 0.025893 0
-0.0480158 0.0397003 0
-0.0458737 0.0484792 0
-0.0422942 0.0403419 0
-0.0480158 0.0397003 0
-0.0328866 0.0272242 0
-0.0624465 0.025893 0
-0.0480158 0.0397003 0
-0.0388921 0.0251044 0
-0.0422967 0.0280131 0
-0.0480158 0.0397003 0
-0.0328866 0.0272242 0
-0.0422967 0.0280131 0
-0.0225579 -0.00167641 0
-0.0422942 0.0403419 0
-0.0373574 0.0271398 0
-0.0328866 0.0272242 0
-0.00162422 -0.00209504 0
-0.0373574 0.0271398 0
-0.0117934 0.0122232 0
-0.00162422 -0.00209504 0
0.0135485 -0.00657041 0
-0.0328866 0.0272242 0
-0.00162422 -0.00209504 0
-0.0225579 -0.00167641 0
-0.0231011 -0.0087936 0
-0.00162422 -0.00209504 0
0.0135485 -0.00657041 0
-0.0231011 -0.0087936 0
-0.0295894 -0.00969946 0
0 0 0
0 0 0
-0.00307233 0.00668325 0
-0.0381965 0.0341419 0
0 0 0
0 0 0
-0.0381965 0.0341419 0
-0.0374993 -0.0338114 0
-0.00307233 0.00668325 0
-0.0381965 0.0341419 0
-0.0104142 0.0269472 0
0.0125904 0.0279211 0
-0.0381965 0.0341419 0
-0.0374993 -0.0338114 0
0.0125904 0.0279211 0
0.0143901 -0.0297476 0
-0.0104142 0.0269472 0
0.0125904 0.0279211 0
-0.0113822 0.0368896 0
0.00717848 -0.0294211 0
0.0125904 0.0279211 0
0.0143901 -0.0297476 0
0.00717848 -0.0294211 0
-0.00347157 0.0371897 0
-0.0113822 0.0368896 0
0.00717848 -0.0294211 0
-0.0117934 0.0122232 0
-0.00638599 -0.0308602 0
0.00717848 -0.0294211 0
-0.00347157 0.0371897 0
-0.00638599 -0.0308602 0
-0.0205374 0.0666919 0
-0.0117934 0.0122232 0
-0.00638599 -0.0308602 0
0.0135485 -0.00657041 0
-0.009984 0.00861144 0
-0.00638599 -0.0308602 0
-0.0205374 0.0666919 0
-0.009984 0.00861144 0
-0.0208053 0.0558084 0
0.0135485 -0.00657041 0
-0.009984 0.00861144 0
-0.0295894 -0.00969946 0
-0.0112734 0.0177131 0
-0.009984 0.00861144 0
-0.0208053 0.0558084 0
-0.0112734 0.0177131 0
0.00983181 0.0349024 0
0 0 0
0 0 0
-0.0374993 -0.0338114 0
-0.0182997 0.0103091 0
0 0 0
0 0 0
-0.0182997 0.0103091 0
-0.023166 -0.00374124 0
-0.0374993 -0.0338114 0
-0.0182997 0.0103091 0
0.0143901 -0.0297476 0
-0.0292789 0.0336186 0
-0.0182997 0.0103091 0
-0.023166 -0.00374124 0
-0.0292789 0.0336186 0
-0.0441391 -0.00235366 0
0.0143901 -0.0297476 0
-0.0292789 0.0336186 0
-0.00347157 0.0371897 0
-0.0283033 0.0464665 0
-0.0292789 0.0336186 0
-0.0441391 -0.00235366 0
-0.0283033 0.0464665 0
-0.0267655 0.00122648 0
-0.00347157 0.0371897 0
-0.0283033 0.0464665 0
-0.0205374 0.0666919 0
-0.00355884 0.026029 0
-0.0283033 0.0464665 0
-0.0267655 0.00122648 0
-0.00355884 0.026029 0
0.0179481 -0.00510056 0
-0.0205374 0.0666919 0
-0.00355884 0.026029 0
-0.0208053 0.0558084 0
-0.0160424 0.0114204 0
-0.00355884 0.026029 0
0.0179481 -0.00510056 0
-0.0160424 0.0114204 0
-0.0157592 -0.0157559 0
-0.0208053 0.0558084 0
-0.0160424 0.0114204 0
0.00983181 0.0349024 0
0.0204645 0.0139467 0
-0.0160424 0.0114204 0
-0.0157592 -0.0157559 0
0.0204645 0.0139467 0
0.00571368 -0.00151025 0
0 0 0
0 0 0
-0.023166 -0.00374124 0
-0.0169635 -0.0040633 0
0 0 0
0 0 0
-0.0169635 -0.0040633 0
-0.00405207 -0.0107278 0
-0.023166 -0.00374124 0
-0.0169635 -0.0040633 0
-0.0441391 -0.00235366 0
-0.0421202 -0.0157222 0
-0.0169635 -0.0040633 0
-0.00405207 -0.0107278 0
-0.0421202 -0.0157222 0
-0.0285239 -0.0294711 0
-0.0441391 -0.00235366 0
-0.0421202 -0.0157222 0
-0.0267655 0.00122648 0
-0.0303216 -0.0178566 0
-0.0421202 -0.0157222 0
-0.0285239 -0.0294711 0
-0.0303216 -0.0178566 0
-0.0309635 -0.0423933 0
-0.0267655 0.00122648 0
-0.0303216 -0.0178566 0
0.0179481 -0.00510056 0
0.0101573 0.00124913 0
-0.0303216 -0.0178566 0
-0.0309635 -0.0423933 0
0.0101573 0.00124913 0
-0.0108022 -0.0363777 0
0.0179481 -0.00510056 0
0.0101573 0.00124913 0
-0.0157592 -0.0157559 0
-0.00397402 0.00721595 0
0.0101573 0.00124913 0
-0.0108022 -0.0363777 0
-0.00397402 0.00721595 0
-0.000697946 -0.0217577 0
-0.0157592 -0.0157559 0
-0.00397402 0.00721595 0
0.00571368 -0.00151025 0
0.00163088 -0.0167149 0
-0.00397402 0.00721595 0
-0.000697946 -0.0217577 0
0.00163088 -0.0167149 0
0.0028045 -0.00324069 0
0 0 0
0 0 0
-0.00405207 -0.0107278 0
0.00265627 0.00292285 0
0 0 0
0 0 0
0.00265627 0.00292285 0
0 0 0
-0.00405207 -0.0107278 0
0.00265627 0.00292285 0
-0.0285239 -0.0294711 0
-0.010719 -0.0067737 0
0.00265627 0.00292285 0
0 0 0
-0.010719 -0.0067737 0
0 0 0
-0.0285239 -0.0294711 0
-0.010719 -0.0067737 0
-0.0309635 -0.0423933 0
-0.0132754 -0.0353224 0
-0.010719 -0.0067737 0
0 0 0
-0.0132754 -0.0353224 0
0 0 0
-0.0309635 -0.0423933 0
-0.0132754 -0.0353224 0
-0.0108022 -0.0363777 0
-0.00998877 -0.0627562 0
-0.0132754 -0.0353224 0
0 0 0
-0.00998877 -0.0627562 0
0 0 0
-0.0108022 -0.0363777 0
-0.00998877 -0.0627562 0
-0.000697946 -0.0217577 0
-0.00206542 -0.0769719 0
-0.00998877 -0.0627562 0
0 0 0
-0.00206542 -0.0769719 0
0 0 0
-0.000697946 -0.0217577 0
-0.00206542 -0.0769719 0
0.0028045 -0.00324069 0
-0.00533099 -0.0856147 0
-0.00206542 -0.0769719 0
0 0 0
-0.00533099 -0.0856147 0
0 0 0
0.176862 0.00780788 0
0.176919 0.00757419 0
0.181319 0.00713657 0
0.171488 0.0057222 0
0.176919 0.00757419 0
0.131276 0.00334272 0
0.171488 0.0057222 0
0.130107 0.00260005 0
0.181319 0.00713657 0
0.171488 0.0057222 0
0.183015 0.00475718 0
0.16822 0.00373149 0
0.171488 0.0057222 0
0.130107 0.00260005 0
0.16822 0.00373149 0
0.128981 0.00183269 0
0.166101 0.00681021 0
0.107233 0.00597658 0
0.162037 0.0066597 0
0.109821 0.00578303 0
0.107233 0.00597658 0
0.227916 5.85014e-06 0
0.109821 0.00578303 0
0.215317 5.51668e-06 0
0.162037 0.0066597 0
0.109821 0.00578303 0
0.157987 0.00658896 0
0.111971 0.00528673 0
0.109821 0.00578303 0
0.215317 5.51668e-06 0
0.111971 0.00528673 0
0.203816 5.31125e-06 0
0.157987 0.00658896 0
0.111971 0.00528673 0
0.153856 0.00623222 0
0.113945 0.00503664 0
0.111971 0.00528673 0
0.203816 5.31125e-06 0
0.113945 0.00503664 0
0.193222 5.16128e-06 0
0.153856 0.00623222 0
0.113945 0.00503664 0
0.150185 0.00567105 0
0.115659 0.00455959 0
0.113945 0.00503664 0
0.193222 5.16128e-06 0
0.115659 0.00455959 0
0.183524 5.55633e-06 0
0.150185 0.00567105 0
0.115659 0.00455959 0
0.146969 0.00529174 0
0.117088 0.00432607 0
0.115659 0.00455959 0
0.183524 5.55633e-06 0
0.117088 0.00432607 0
0.17474 5.96519e-06 0
0.146969 0.00529174 0
0.117088 0.00432607 0
0.144065 0.00513941 0
0.118198 0.00391956 0
0.117088 0.00432607 0
0.17474 5.96519e-06 0
0.118198 0.00391956 0
0.166867 6.29028e-06 0
0.144065 0.00513941 0
0.118198 0.00391956 0
0.141429 0.00495041 0
0.118947 0.00386302 0
0.118198 0.00391956 0
0.166867 6.29028e-06 0
0.118947 0.00386302 0
0.159812 6.8438e-06 0
0.141429 0.00495041 0
0.118947 0.00386302 0
0.139025 0.00477884 0
0.119348 0.00344552 0
0.118947 0.00386302 0
0.159812 6.8438e-06 0
0.119348 0.00344552 0
0.153439 6.5992e-06 0
0.139025 0.00477884 0
0.119348 0.00344552 0
0.136824 0.00455145 0
0.1194 0.00346148 0
0.119348 0.00344552 0
0.153439 6.5992e-06 0
0.1194 0.00346148 0
0.147731 7.54742e-06 0
0.136824 0.00455145 0
0.1194 0.00346148 0
0.134729 0.00475845 0
0.119169 0.00309767 0
0.1194 0.00346148 0
0.147731 7.54742e-06 0
0.119169 0.00309767 0
0.142697 6.92042e-06 0
0.134729 0.00475845 0
0.119169 0.00309767 0
0.132811 0.004097 0
0.118807 0.00309574 0
0.119169 0.00309767 0
0.142697 6.92042e-06 0
0.118807 0.00309574 0
0.138186 5.39411e-06 0
0.132811 0.004097 0
0.118807 0.00309574 0
0.131276 0.00334272 0
0.118488 0.00236389 0
0.118807 0.00309574 0