# vtk DataFile Version 3.0
#This file was generated by the deal.II library on 2026/3/26 at 11:14:28
ASCII
DATASET UNSTRUCTURED_GRID

POINTS 3648 double
0 0 0
0.214286 0 0
0 0.25 0
0.214286 0.25 0
0 0.25 0
0.214286 0.25 0
0 0.5 0
0.214286 0.5 0
0.214286 0 0
0.428571 0 0
0.214286 0.25 0
0.428571 0.25 0
0.214286 0.25 0
0.428571 0.25 0
0.214286 0.5 0
0.428571 0.5 0
0.428571 0 0
0.642857 0 0
0.428571 0.25 0
0.642857 0.25 0
0.428571 0.25 0
0.642857 0.25 0
0.428571 0.5 0
0.642857 0.5 0
0.428571 0.5 0
0.642857 0.5 0
0.428571 0.75 0
0.642857 0.75 0
0.642857 0 0
0.857143 0 0
0.642857 0.25 0
0.857143 0.25 0
0.642857 0.25 0
0.857143 0.25 0
0.642857 0.5 0
0.857143 0.5 0
0.642857 0.5 0
0.857143 0.5 0
0.642857 0.75 0
0.857143 0.75 0
0.857143 0 0
1.07143 0 0
0.857143 0.25 0
1.07143 0.25 0
0.857143 0.25 0
1.07143 0.25 0
0.857143 0.5 0
1.07143 0.5 0
0.857143 0.5 0
1.07143 0.5 0
0.857143 0.75 0
1.07143 0.75 0
1.07143 0 0
1.28571 0 0
1.07143 0.25 0
1.28571 0.25 0
1.07143 0.25 0
1.28571 0.25 0
1.07143 0.5 0
1.28571 0.5 0
1.07143 0.5 0
1.28571 0.5 0
1.07143 0.75 0
1.28571 0.75 0
1.28571 0 0
1.5 0 0
1.28571 0.25 0
1.5 0.25 0
1.28571 0.25 0
1.5 0.25 0
1.28571 0.5 0
1.5 0.5 0
1.5 0 0
1.71429 0 0
1.5 0.25 0
1.71429 0.25 0
1.5 0.25 0
1.71429 0.25 0
1.5 0.5 0
1.71429 0.5 0
1.71429 0 0
1.92857 0 0
1.71429 0.25 0
1.92857 0.25 0
1.71429 0.25 0
1.92857 0.25 0
1.71429 0.5 0
1.92857 0.5 0
1.92857 0 0
2.14286 0 0
1.92857 0.25 0
2.14286 0.25 0
1.92857 0.25 0
2.14286 0.25 0
1.92857 0.5 0
2.14286 0.5 0
0 3 0
0 2.75 0
0.214286 3 0
0.214286 2.75 0
0.214286 3 0
0.214286 2.75 0
0.428571 3 0
0.428571 2.75 0
0.428571 3 0
0.428571 2.75 0
0.642857 3 0
0.642857 2.75 0
0.642857 3 0
0.642857 2.75 0
0.857143 3 0
0.857143 2.75 0
0.857143 3 0
0.857143 2.75 0
1.07143 3 0
1.07143 2.75 0
1.07143 3 0
1.07143 2.75 0
1.28571 3 0
1.28571 2.75 0
1.28571 3 0
1.28571 2.75 0
1.5 3 0
1.5 2.75 0
1.5 3 0
1.5 2.75 0
1.71429 3 0
1.71429 2.75 0
1.71429 3 0
1.71429 2.75 0
1.92857 3 0
1.92857 2.75 0
1.92857 3 0
1.92857 2.75 0
2.14286 3 0
2.14286 2.75 0
0 2.75 0
0 2.5 0
0.214286 2.75 0
0.214286 2.5 0
0.214286 2.75 0
0.214286 2.5 0
0.428571 2.75 0
0.428571 2.5 0
0.428571 2.75 0
0.428571 2.5 0
0.642857 2.75 0
0.642857 2.5 0
0.642857 2.75 0
0.642857 2.5 0
0.857143 2.75 0
0.857143 2.5 0
0.857143 2.75 0
0.857143 2.5 0
1.07143 2.75 0
1.07143 2.5 0
1.07143 2.75 0
1.07143 2.5 0
1.28571 2.75 0
1.28571 2.5 0
1.28571 2.75 0
1.28571 2.5 0
1.5 2.75 0
1.5 2.5 0
1.5 2.75 0
1.5 2.5 0
1.71429 2.75 0
1.71429 2.5 0
1.71429 2.75 0
1.71429 2.5 0
1.92857 2.75 0
1.92857 2.5 0
1.92857 2.75 0
1.92857 2.5 0
2.14286 2.75 0
2.14286 2.5 0
0.428571 2.5 0
0.428571 2.25 0
0.642857 2.5 0
0.642857 2.25 0
0.642857 2.5 0
0.642857 2.25 0
0.857143 2.5 0
0.857143 2.25 0
0.857143 2.5 0
0.857143 2.25 0
1.07143 2.5 0
1.07143 2.25 0
1.07143 2.5 0
1.07143 2.25 0
1.28571 2.5 0
1.28571 2.25 0
0.214286 0.75 0
0.321429 0.75 0
0.214286 0.875 0
0.321429 0.875 0
0.321429 0.75 0
0.428571 0.75 0
0.321429 0.875 0
0.428571 0.875 0
0.214286 0.875 0
0.321429 0.875 0
0.214286 1 0
0.321429 1 0
0.321429 0.875 0
0.428571 0.875 0
0.321429 1 0
0.428571 1 0
0.428571 0.75 0
0.535714 0.75 0
0.428571 0.875 0
0.535714 0.875 0
0.535714 0.75 0
0.642857 0.75 0
0.535714 0.875 0
0.642857 0.875 0
0.428571 0.875 0
0.535714 0.875 0
0.428571 1 0
0.535714 1 0
0.535714 0.875 0
0.642857 0.875 0
0.535714 1 0
0.642857 1 0
0.642857 0.75 0
0.75 0.75 0
0.642857 0.875 0
0.75 0.875 0
0.75 0.75 0
0.857143 0.75 0
0.75 0.875 0
0.857143 0.875 0
0.642857 0.875 0
0.75 0.875 0
0.642857 1 0
0.75 1 0
0.75 0.875 0
0.857143 0.875 0
0.75 1 0
0.857143 1 0
0.857143 0.75 0
0.964286 0.75 0
0.857143 0.875 0
0.964286 0.875 0
0.964286 0.75 0
1.07143 0.75 0
0.964286 0.875 0
1.07143 0.875 0
0.857143 0.875 0
0.964286 0.875 0
0.857143 1 0
0.964286 1 0
0.964286 0.875 0
1.07143 0.875 0
0.964286 1 0
1.07143 1 0
1.07143 0.75 0
1.17857 0.75 0
1.07143 0.875 0
1.17857 0.875 0
1.17857 0.75 0
1.28571 0.75 0
1.17857 0.875 0
1.28571 0.875 0
1.07143 0.875 0
1.17857 0.875 0
1.07143 1 0
1.17857 1 0
1.17857 0.875 0
1.28571 0.875 0
1.17857 1 0
1.28571 1 0
0.214286 2 0
0.214286 1.875 0
0.321429 2 0
0.321429 1.875 0
0.214286 1.875 0
0.214286 1.75 0
0.321429 1.875 0
0.321429 1.75 0
0.321429 2 0
0.321429 1.875 0
0.428571 2 0
0.428571 1.875 0
0.321429 1.875 0
0.321429 1.75 0
0.428571 1.875 0
0.428571 1.75 0
0.428571 2 0
0.428571 1.875 0
0.535714 2 0
0.535714 1.875 0
0.428571 1.875 0
0.428571 1.75 0
0.535714 1.875 0
0.535714 1.75 0
0.535714 2 0
0.535714 1.875 0
0.642857 2 0
0.642857 1.875 0
0.535714 1.875 0
0.535714 1.75 0
0.642857 1.875 0
0.642857 1.75 0
0.642857 2 0
0.642857 1.875 0
0.75 2 0
0.75 1.875 0
0.642857 1.875 0
0.642857 1.75 0
0.75 1.875 0
0.75 1.75 0
0.75 2 0
0.75 1.875 0
0.857143 2 0
0.857143 1.875 0
0.75 1.875 0
0.75 1.75 0
0.857143 1.875 0
0.857143 1.75 0
0.857143 2 0
0.857143 1.875 0
0.964286 2 0
0.964286 1.875 0
0.857143 1.875 0
0.857143 1.75 0
0.964286 1.875 0
0.964286 1.75 0
0.964286 2 0
0.964286 1.875 0
1.07143 2 0
1.07143 1.875 0
0.964286 1.875 0
0.964286 1.75 0
1.07143 1.875 0
1.07143 1.75 0
1.07143 2 0
1.07143 1.875 0
1.17857 2 0
1.17857 1.875 0
1.07143 1.875 0
1.07143 1.75 0
1.17857 1.875 0
1.17857 1.75 0
1.17857 2 0
1.17857 1.875 0
1.28571 2 0
1.28571 1.875 0
1.17857 1.875 0
1.17857 1.75 0
1.28571 1.875 0
1.28571 1.75 0
0.214286 1.25 0
0.214286 1.125 0
0.321429 1.25 0
0.321429 1.125 0
0.214286 1.125 0
0.214286 1 0
0.321429 1.125 0
0.321429 1 0
0.321429 1.25 0
0.321429 1.125 0
0.428571 1.25 0
0.428571 1.125 0
0.321429 1.125 0
0.321429 1 0
0.428571 1.125 0
0.428571 1 0
0.428571 1.25 0
0.428571 1.125 0
0.535714 1.25 0
0.535714 1.125 0
0.428571 1.125 0
0.428571 1 0
0.535714 1.125 0
0.535714 1 0
0.535714 1.25 0
0.535714 1.125 0
0.642857 1.25 0
0.642857 1.125 0
0.535714 1.125 0
0.535714 1 0
0.642857 1.125 0
0.642857 1 0
0.642857 1.25 0
0.642857 1.125 0
0.75 1.25 0
0.75 1.125 0
0.642857 1.125 0
0.642857 1 0
0.75 1.125 0
0.75 1 0
0.75 1.25 0
0.75 1.125 0
0.857143 1.25 0
0.857143 1.125 0
0.75 1.125 0
0.75 1 0
0.857143 1.125 0
0.857143 1 0
0.857143 1.25 0
0.857143 1.125 0
0.964286 1.25 0
0.964286 1.125 0
0.857143 1.125 0
0.857143 1 0
0.964286 1.125 0
0.964286 1 0
0.964286 1.25 0
0.964286 1.125 0
1.07143 1.25 0
1.07143 1.125 0
0.964286 1.125 0
0.964286 1 0
1.07143 1.125 0
1.07143 1 0
1.07143 1.25 0
1.07143 1.125 0
1.17857 1.25 0
1.17857 1.125 0
1.07143 1.125 0
1.07143 1 0
1.17857 1.125 0
1.17857 1 0
1.17857 1.25 0
1.17857 1.125 0
1.28571 1.25 0
1.28571 1.125 0
1.17857 1.125 0
1.17857 1 0
1.28571 1.125 0
1.28571 1 0
0.214286 2.25 0
0.214286 2.125 0
0.321429 2.25 0
0.321429 2.125 0
0.214286 2.125 0
0.214286 2 0
0.321429 2.125 0
0.321429 2 0
0.321429 2.25 0
0.321429 2.125 0
0.428571 2.25 0
0.428571 2.125 0
0.321429 2.125 0
0.321429 2 0
0.428571 2.125 0
0.428571 2 0
0.428571 2.25 0
0.428571 2.125 0
0.535714 2.25 0
0.535714 2.125 0
0.428571 2.125 0
0.428571 2 0
0.535714 2.125 0
0.535714 2 0
0.535714 2.25 0
0.535714 2.125 0
0.642857 2.25 0
0.642857 2.125 0
0.535714 2.125 0
0.535714 2 0
0.642857 2.125 0
0.642857 2 0
0.642857 2.25 0
0.642857 2.125 0
0.75 2.25 0
0.75 2.125 0
0.642857 2.125 0
0.642857 2 0
0.75 2.125 0
0.75 2 0
0.75 2.25 0
0.75 2.125 0
0.857143 2.25 0
0.857143 2.125 0
0.75 2.125 0
0.75 2 0
0.857143 2.125 0
0.857143 2 0
0.857143 2.25 0
0.857143 2.125 0
0.964286 2.25 0
0.964286 2.125 0
0.857143 2.125 0
0.857143 2 0
0.964286 2.125 0
0.964286 2 0
0.964286 2.25 0
0.964286 2.125 0
1.07143 2.25 0
1.07143 2.125 0
0.964286 2.125 0
0.964286 2 0
1.07143 2.125 0
1.07143 2 0
1.07143 2.25 0
1.07143 2.125 0
1.17857 2.25 0
1.17857 2.125 0
1.07143 2.125 0
1.07143 2 0
1.17857 2.125 0
1.17857 2 0
1.17857 2.25 0
1.17857 2.125 0
1.28571 2.25 0
1.28571 2.125 0
1.17857 2.125 0
1.17857 2 0
1.28571 2.125 0
1.28571 2 0
0 0.5 0
0.107143 0.5 0
0 0.625 0
0.107143 0.625 0
0.107143 0.5 0
0.214286 0.5 0
0.107143 0.625 0
0.214286 0.625 0
0 0.625 0
0.107143 0.625 0
0 0.75 0
0.107143 0.75 0
0.107143 0.625 0
0.214286 0.625 0
0.107143 0.75 0
0.214286 0.75 0
0.214286 0.5 0
0.321429 0.5 0
0.214286 0.625 0
0.321429 0.625 0
0.321429 0.5 0
0.428571 0.5 0
0.321429 0.625 0
0.428571 0.625 0
0.214286 0.625 0
0.321429 0.625 0
0.214286 0.75 0
0.321429 0.75 0
0.321429 0.625 0
0.428571 0.625 0
0.321429 0.75 0
0.428571 0.75 0
1.28571 0.5 0
1.39286 0.5 0
1.28571 0.625 0
1.39286 0.625 0
1.39286 0.5 0
1.5 0.5 0
1.39286 0.625 0
1.5 0.625 0
1.28571 0.625 0
1.39286 0.625 0
1.28571 0.75 0
1.39286 0.75 0
1.39286 0.625 0
1.5 0.625 0
1.39286 0.75 0
1.5 0.75 0
1.28571 0.75 0
1.39286 0.75 0
1.28571 0.875 0
1.39286 0.875 0
1.39286 0.75 0
1.5 0.75 0
1.39286 0.875 0
1.5 0.875 0
1.28571 0.875 0
1.39286 0.875 0
1.28571 1 0
1.39286 1 0
1.39286 0.875 0
1.5 0.875 0
1.39286 1 0
1.5 1 0
1.5 0.5 0
1.60714 0.5 0
1.5 0.625 0
1.60714 0.625 0
1.60714 0.5 0
1.71429 0.5 0
1.60714 0.625 0
1.71429 0.625 0
1.5 0.625 0
1.60714 0.625 0
1.5 0.75 0
1.60714 0.75 0
1.60714 0.625 0
1.71429 0.625 0
1.60714 0.75 0
1.71429 0.75 0
1.71429 0.5 0
1.82143 0.5 0
1.71429 0.625 0
1.82143 0.625 0
1.82143 0.5 0
1.92857 0.5 0
1.82143 0.625 0
1.92857 0.625 0
1.71429 0.625 0
1.82143 0.625 0
1.71429 0.75 0
1.82143 0.75 0
1.82143 0.625 0
1.92857 0.625 0
1.82143 0.75 0
1.92857 0.75 0
1.92857 0.5 0
2.03571 0.5 0
1.92857 0.625 0
2.03571 0.625 0
2.03571 0.5 0
2.14286 0.5 0
2.03571 0.625 0
2.14286 0.625 0
1.92857 0.625 0
2.03571 0.625 0
1.92857 0.75 0
2.03571 0.75 0
2.03571 0.625 0
2.14286 0.625 0
2.03571 0.75 0
2.14286 0.75 0
2.14286 0 0
2.25 0 0
2.14286 0.125 0
2.25 0.125 0
2.25 0 0
2.35714 0 0
2.25 0.125 0
2.35714 0.125 0
2.14286 0.125 0
2.25 0.125 0
2.14286 0.25 0
2.25 0.25 0
2.25 0.125 0
2.35714 0.125 0
2.25 0.25 0
2.35714 0.25 0
2.14286 0.25 0
2.25 0.25 0
2.14286 0.375 0
2.25 0.375 0
2.25 0.25 0
2.35714 0.25 0
2.25 0.375 0
2.35714 0.375 0
2.14286 0.375 0
2.25 0.375 0
2.14286 0.5 0
2.25 0.5 0
2.25 0.375 0
2.35714 0.375 0
2.25 0.5 0
2.35714 0.5 0
2.14286 0.5 0
2.25 0.5 0
2.14286 0.625 0
2.25 0.625 0
2.25 0.5 0
2.35714 0.5 0
2.25 0.625 0
2.35714 0.625 0
2.14286 0.625 0
2.25 0.625 0
2.14286 0.75 0
2.25 0.75 0
2.25 0.625 0
2.35714 0.625 0
2.25 0.75 0
2.35714 0.75 0
2.35714 0 0
2.46429 0 0
[...]
POINT_DATA 3648
VECTORS velocity double
0 0 0
0 0 0
0 0 0
-0.00841785 0.00950184 0
0 0 0
-0.00841785 0.00950184 0
0 0 0
-0.00100198 0.020557 0
0 0 0
0 0 0
-0.00841785 0.00950184 0
-0.0264991 0.0113829 0
-0.00841785 0.00950184 0
-0.0264991 0.0113829 0
-0.00100198 0.020557 0
-0.00242667 0.0232862 0
0 0 0
0 0 0
-0.0264991 0.0113829 0
-0.0453244 0.0104399 0
-0.0264991 0.0113829 0
-0.0453244 0.0104399 0
-0.00242667 0.0232862 0
-0.00326239 0.0214228 0
-0.00242667 0.0232862 0
-0.00326239 0.0214228 0
0.0174795 0.0153187 0
0.0324977 0.0131486 0
0 0 0
0 0 0
-0.0453244 0.0104399 0
-0.0565739 0.00277156 0
-0.0453244 0.0104399 0
-0.0565739 0.00277156 0
-0.00326239 0.0214228 0
0.00262362 -0.00231334 0
-0.00326239 0.0214228 0
0.00262362 -0.00231334 0
0.0324977 0.0131486 0
0.0341687 -0.00283678 0
0 0 0
0 0 0
-0.0565739 0.00277156 0
-0.0486876 -0.0119281 0
-0.0565739 0.00277156 0
-0.0486876 -0.0119281 0
0.00262362 -0.00231334 0
0.00037333 -0.0140183 0
0.00262362 -0.00231334 0
0.00037333 -0.0140183 0
0.0341687 -0.00283678 0
0.0273768 -0.00274265 0
0 0 0
0 0 0
-0.0486876 -0.0119281 0
-0.0107186 -0.033632 0
-0.0486876 -0.0119281 0
-0.0107186 -0.033632 0
0.00037333 -0.0140183 0
-0.0201289 -0.0517619 0
0.00037333 -0.0140183 0
-0.0201289 -0.0517619 0
0.0273768 -0.00274265 0
0.0155319 -0.0248287 0
0 0 0
0 0 0
-0.0107186 -0.033632 0
0.074732 -0.0677235 0
-0.0107186 -0.033632 0
0.074732 -0.0677235 0
-0.0201289 -0.0517619 0
-0.071403 -0.0886672 0
0 0 0
0 0 0
0.074732 -0.0677235 0
0.0921867 0.0491134 0
0.074732 -0.0677235 0
0.0921867 0.0491134 0
-0.071403 -0.0886672 0
-0.0768638 0.0558739 0
0 0 0
0 0 0
0.0921867 0.0491134 0
0.0326922 0.0193932 0
0.0921867 0.0491134 0
0.0326922 0.0193932 0
-0.0768638 0.0558739 0
-0.0489562 0.0487052 0
0 0 0
0 0 0
0.0326922 0.0193932 0
-0.00518222 0.0240514 0
0.0326922 0.0193932 0
-0.00518222 0.0240514 0
-0.0489562 0.0487052 0
-0.0149013 -0.00048897 0
0 0 0
0 0 0
0 0 0
-0.00841485 -0.00949872 0
0 0 0
-0.00841485 -0.00949872 0
0 0 0
-0.0265032 -0.0113936 0
0 0 0
-0.0265032 -0.0113936 0
0 0 0
-0.0453416 -0.0104445 0
0 0 0
-0.0453416 -0.0104445 0
0 0 0
-0.0565895 -0.00276497 0
0 0 0
-0.0565895 -0.00276497 0
0 0 0
-0.0486863 0.0119414 0
0 0 0
-0.0486863 0.0119414 0
0 0 0
-0.0106926 0.0336481 0
0 0 0
-0.0106926 0.0336481 0
0 0 0
0.0746584 0.0675878 0
0 0 0
0.0746584 0.0675878 0
0 0 0
0.0920804 -0.0490094 0
0 0 0
0.0920804 -0.0490094 0
0 0 0
0.0326872 -0.019382 0
0 0 0
0.0326872 -0.019382 0
0 0 0
-0.00518573 -0.0240586 0
0 0 0
0 0 0
-0.00841485 -0.00949872 0
-0.00100823 -0.0205589 0
-0.00841485 -0.00949872 0
-0.00100823 -0.0205589 0
-0.0265032 -0.0113936 0
-0.00243699 -0.0233055 0
-0.0265032 -0.0113936 0
-0.00243699 -0.0233055 0
-0.0453416 -0.0104445 0
-0.00327638 -0.0214402 0
-0.0453416 -0.0104445 0
-0.00327638 -0.0214402 0
-0.0565895 -0.00276497 0
0.00261034 0.00233506 0
-0.0565895 -0.00276497 0
0.00261034 0.00233506 0
-0.0486863 0.0119414 0
0.000361889 0.0140347 0
-0.0486863 0.0119414 0
0.000361889 0.0140347 0
-0.0106926 0.0336481 0
-0.0201646 0.0517745 0
-0.0106926 0.0336481 0
-0.0201646 0.0517745 0
0.0746584 0.0675878 0
-0.071303 0.0885763 0
0.0746584 0.0675878 0
-0.071303 0.0885763 0
0.0920804 -0.0490094 0
-0.0767523 -0.0558304 0
0.0920804 -0.0490094 0
-0.0767523 -0.0558304 0
0.0326872 -0.019382 0
-0.0489639 -0.0486604 0
0.0326872 -0.019382 0
-0.0489639 -0.0486604 0
-0.00518573 -0.0240586 0
-0.0148987 0.000465279 0
-0.00243699 -0.0233055 0
0.0174835 -0.0153305 0
-0.00327638 -0.0214402 0
0.0325176 -0.0131577 0
-0.00327638 -0.0214402 0
0.0325176 -0.0131577 0
0.00261034 0.00233506 0
0.034185 0.00284805 0
0.00261034 0.00233506 0
0.034185 0.00284805 0
0.000361889 0.0140347 0
0.0273722 0.00274852 0
0.000361889 0.0140347 0
0.0273722 0.00274852 0
-0.0201646 0.0517745 0
0.0155363 0.0248367 0
0.00369428 0.0153376 0
0.0115613 0.0159849 0
0.00138756 0.00929813 0
0.00393834 0.00975377 0
0.0115613 0.0159849 0
0.0174795 0.0153187 0
0.00393834 0.00975377 0
0.0102761 0.00743382 0
0.00138756 0.00929813 0
0.00393834 0.00975377 0
0.0542389 -0.00412593 0
0.0772927 -0.00601749 0
0.00393834 0.00975377 0
0.0102761 0.00743382 0
0.0772927 -0.00601749 0
0.0967201 -0.00661938 0
0.0174795 0.0153187 0
0.0249111 0.0141253 0
0.0102761 0.00743382 0
0.016785 0.0060887 0
0.0249111 0.0141253 0
0.0324977 0.0131486 0
0.016785 0.0060887 0
0.0237787 0.00467596 0
0.0102761 0.00743382 0
0.016785 0.0060887 0
0.0967201 -0.00661938 0
0.113328 -0.0070467 0
0.016785 0.0060887 0
0.0237787 0.00467596 0
0.113328 -0.0070467 0
0.127458 -0.00737697 0
0.0324977 0.0131486 0
0.036706 0.00529075 0
0.0237787 0.00467596 0
0.0297717 0.00251667 0
0.036706 0.00529075 0
0.0341687 -0.00283678 0
0.0297717 0.00251667 0
0.0332693 -0.000498618 0
0.0237787 0.00467596 0
0.0297717 0.00251667 0
0.127458 -0.00737697 0
0.139783 -0.00761035 0
0.0297717 0.00251667 0
0.0332693 -0.000498618 0
0.139783 -0.00761035 0
0.150661 -0.00808011 0
0.0341687 -0.00283678 0
0.0295342 -0.00263354 0
0.0332693 -0.000498618 0
0.0356902 -0.001751 0
0.0295342 -0.00263354 0
0.0273768 -0.00274265 0
0.0356902 -0.001751 0
0.0382 -0.00350451 0
0.0332693 -0.000498618 0
0.0356902 -0.001751 0
0.150661 -0.00808011 0
0.160036 -0.00891668 0
0.0356902 -0.001751 0
0.0382 -0.00350451 0
0.160036 -0.00891668 0
0.167969 -0.0093947 0
0.0273768 -0.00274265 0
0.0239605 -0.0138016 0
0.0382 -0.00350451 0
0.0376054 -0.00804202 0
0.0239605 -0.0138016 0
0.0155319 -0.0248287 0
0.0376054 -0.00804202 0
0.0302374 -0.0121233 0
0.0382 -0.00350451 0
0.0376054 -0.00804202 0
0.167969 -0.0093947 0
0.174504 -0.00988603 0
0.0376054 -0.00804202 0
0.0302374 -0.0121233 0
0.174504 -0.00988603 0
0.179819 -0.00825146 0
0.0542268 0.004124 0
0.235916 0.015311 0
0.0772761 0.00601423 0
0.230039 0.0144794 0
0.235916 0.015311 0
0.173172 0.00778213 0
0.230039 0.0144794 0
0.166256 0.00726584 0
0.0772761 0.00601423 0
0.230039 0.0144794 0
0.0966994 0.00661591 0
0.224243 0.0132986 0
0.230039 0.0144794 0
0.166256 0.00726584 0
0.224243 0.0132986 0
0.15995 0.00662643 0
0.0966994 0.00661591 0
0.224243 0.0132986 0
0.113304 0.00704283 0
0.218599 0.0121477 0
0.224243 0.0132986 0
0.15995 0.00662643 0
0.218599 0.0121477 0
0.154318 0.00601453 0
0.113304 0.00704283 0
0.218599 0.0121477 0
0.127432 0.00737333 0
0.213169 0.0112231 0
0.218599 0.0121477 0
0.154318 0.00601453 0
0.213169 0.0112231 0
0.149295 0.00559026 0
0.127432 0.00737333 0
0.213169 0.0112231 0
0.139755 0.00760811 0
0.207841 0.0105193 0
0.213169 0.0112231 0
0.149295 0.00559026 0
0.207841 0.0105193 0
0.144849 0.00520305 0
0.139755 0.00760811 0
0.207841 0.0105193 0
0.150631 0.00807824 0
0.202466 0.0101563 0
0.207841 0.0105193 0
0.144849 0.00520305 0
0.202466 0.0101563 0
0.14088 0.00503673 0
0.150631 0.00807824 0
0.202466 0.0101563 0
0.160006 0.00891552 0
0.196929 0.00986065 0
0.202466 0.0101563 0
0.14088 0.00503673 0
0.196929 0.00986065 0
0.137282 0.00475096 0
0.160006 0.00891552 0
0.196929 0.00986065 0
0.167938 0.00939445 0
0.19114 0.00965427 0
0.196929 0.00986065 0
0.137282 0.00475096 0
0.19114 0.00965427 0
0.134006 0.00457575 0
0.167938 0.00939445 0
0.19114 0.00965427 0
0.174473 0.00988674 0
0.185116 0.00905314 0
0.19114 0.00965427 0
0.134006 0.00457575 0
0.185116 0.00905314 0
0.131121 0.00400234 0
0.174473 0.00988674 0
0.185116 0.00905314 0
0.179788 0.00825157 0
0.179279 0.00756441 0
0.185116 0.00905314 0
0.131121 0.00400234 0
0.179279 0.00756441 0
0.128782 0.00325292 0
0.173112 -0.00778125 0
0.235921 -0.0153129 0
0.166196 -0.00726525 0
0.230039 -0.0144819 0
0.235921 -0.0153129 0
0.0542389 -0.00412593 0
0.230039 -0.0144819 0
0.0772927 -0.00601749 0
0.166196 -0.00726525 0
0.230039 -0.0144819 0
0.15989 -0.00662603 0
0.224238 -0.0133009 0
0.230039 -0.0144819 0
0.0772927 -0.00601749 0
0.224238 -0.0133009 0
0.0967201 -0.00661938 0
0.15989 -0.00662603 0
0.224238 -0.0133009 0
0.154258 -0.00601383 0
0.218588 -0.0121498 0
0.224238 -0.0133009 0
0.0967201 -0.00661938 0
0.218588 -0.0121498 0
0.113328 -0.0070467 0
0.154258 -0.00601383 0
0.218588 -0.0121498 0
0.149236 -0.00558945 0
0.213153 -0.0112243 0
0.218588 -0.0121498 0
0.113328 -0.0070467 0
0.213153 -0.0112243 0
0.127458 -0.00737697 0
0.149236 -0.00558945 0
0.213153 -0.0112243 0
0.14479 -0.00520166 0
0.20782 -0.0105198 0
0.213153 -0.0112243 0
0.127458 -0.00737697 0
0.20782 -0.0105198 0
0.139783 -0.00761035 0
0.14479 -0.00520166 0
0.20782 -0.0105198 0
0.140823 -0.00503535 0
0.202441 -0.0101559 0
0.20782 -0.0105198 0
0.139783 -0.00761035 0
0.202441 -0.0101559 0
0.150661 -0.00808011 0
0.140823 -0.00503535 0
0.202441 -0.0101559 0
0.137227 -0.0047487 0
0.1969 -0.00985947 0
0.202441 -0.0101559 0
0.150661 -0.00808011 0
0.1969 -0.00985947 0
0.160036 -0.00891668 0
0.137227 -0.0047487 0
0.1969 -0.00985947 0
0.133954 -0.00457354 0
0.191107 -0.00965205 0
0.1969 -0.00985947 0
0.160036 -0.00891668 0
0.191107 -0.00965205 0
0.167969 -0.0093947 0
0.133954 -0.00457354 0
0.191107 -0.00965205 0
0.131071 -0.0039997 0
0.18508 -0.00905079 0
0.191107 -0.00965205 0
0.167969 -0.0093947 0
0.18508 -0.00905079 0
0.174504 -0.00988603 0
0.131071 -0.0039997 0
0.18508 -0.00905079 0
0.128735 -0.00325116 0
0.179241 -0.00756194 0
0.18508 -0.00905079 0
0.174504 -0.00988603 0
0.179241 -0.00756194 0
0.179819 -0.00825146 0
0.00369755 -0.0153456 0
0.00139336 -0.00930347 0
0.0115629 -0.015984 0
0.00394821 -0.00975303 0
0.00139336 -0.00930347 0
0.0542268 0.004124 0
0.00394821 -0.00975303 0
0.0772761 0.00601423 0
0.0115629 -0.015984 0
0.00394821 -0.00975303 0
0.0174835 -0.0153305 0
0.0102886 -0.00743954 0
0.00394821 -0.00975303 0
0.0772761 0.00601423 0
0.0102886 -0.00743954 0
0.0966994 0.00661591 0
0.0174835 -0.0153305 0
0.0102886 -0.00743954 0
0.0249205 -0.0141355 0
0.0168029 -0.00609248 0
0.0102886 -0.00743954 0
0.0966994 0.00661591 0
0.0168029 -0.00609248 0
0.113304 0.00704283 0
0.0249205 -0.0141355 0
0.0168029 -0.00609248 0
0.0325176 -0.0131577 0
0.0237975 -0.00467792 0
0.0168029 -0.00609248 0
0.113304 0.00704283 0
0.0237975 -0.00467792 0
0.127432 0.00737333 0
0.0325176 -0.0131577 0
0.0237975 -0.00467792 0
0.0367318 -0.00529107 0
0.0297902 -0.00251749 0
0.0237975 -0.00467792 0
0.127432 0.00737333 0
0.0297902 -0.00251749 0
0.139755 0.00760811 0
0.0367318 -0.00529107 0
0.0297902 -0.00251749 0
0.034185 0.00284805 0
0.0332873 0.000498591 0
0.0297902 -0.00251749 0
0.139755 0.00760811 0
0.0332873 0.000498591 0
0.150631 0.00807824 0
0.034185 0.00284805 0
0.0332873 0.000498591 0
0.0295366 0.00264386 0
0.0357053 0.00175282 0
0.0332873 0.000498591 0
0.150631 0.00807824 0
0.0357053 0.00175282 0
0.160006 0.00891552 0
0.0295366 0.00264386 0
0.0357053 0.00175282 0
0.0273722 0.00274852 0
0.0382114 0.00350596 0
0.0357053 0.00175282 0
0.160006 0.00891552 0
0.0382114 0.00350596 0
0.167938 0.00939445 0
0.0273722 0.00274852 0
0.0382114 0.00350596 0
0.0239563 0.013808 0
0.0376119 0.00804688 0
0.0382114 0.00350596 0
0.167938 0.00939445 0
0.0376119 0.00804688 0
0.174473 0.00988674 0
0.0239563 0.013808 0
0.0376119 0.00804688 0
0.0155363 0.0248367 0
0.0302338 0.01213 0
0.0376119 0.00804688 0
0.174473 0.00988674 0
0.0302338 0.01213 0
0.179788 0.00825157 0
0 0 0
-0.000225161 0.0104702 0
0 0 0
-8.2077e-05 0.0110475 0
-0.000225161 0.0104702 0
-0.00100198 0.020557 0
-8.2077e-05 0.0110475 0
-0.000397958 0.0214576 0
0 0 0
-8.2077e-05 0.0110475 0
0 0 0
-0.000901054 0.012488 0
-8.2077e-05 0.0110475 0
-0.000397958 0.0214576 0
-0.000901054 0.012488 0
0.00369428 0.0153376 0
-0.00100198 0.020557 0
-0.00188754 0.0218363 0
-0.000397958 0.0214576 0
0.00113103 0.0204978 0
-0.00188754 0.0218363 0
-0.00242667 0.0232862 0
0.00113103 0.0204978 0
0.0045411 0.0215582 0
-0.000397958 0.0214576 0
0.00113103 0.0204978 0
0.00369428 0.0153376 0
0.0115613 0.0159849 0
0.00113103 0.0204978 0
0.0045411 0.0215582 0
0.0115613 0.0159849 0
0.0174795 0.0153187 0
-0.0201289 -0.0517619 0
-0.0387412 -0.0706521 0
-0.00587918 -0.0379858 0
-0.0313 -0.0331381 0
-0.0387412 -0.0706521 0
-0.071403 -0.0886672 0
-0.0313 -0.0331381 0
-0.0653091 -0.0483375 0
-0.00587918 -0.0379858 0
-0.0313 -0.0331381 0
0.0155319 -0.0248287 0
-0.000676586 0.0026077 0
-0.0313 -0.0331381 0
-0.0653091 -0.0483375 0
-0.000676586 0.0026077 0
-0.0350688 -0.00423488 0
0.0155319 -0.0248287 0
-0.000676586 0.0026077 0
0.0302374 -0.0121233 0
0.0328144 0.00581392 0
-0.000676586 0.0026077 0
-0.0350688 -0.00423488 0
0.0328144 0.00581392 0
0.0522157 0.00967894 0
0.0302374 -0.0121233 0
0.0328144 0.00581392 0
0.179819 -0.00825146 0
0.183718 -0.00575296 0
0.0328144 0.00581392 0
0.0522157 0.00967894 0
0.183718 -0.00575296 0
0.185874 -0.00400332 0
-0.071403 -0.0886672 0
-0.0929589 -0.0170702 0
-0.0653091 -0.0483375 0
-0.0804598 -0.0144615 0
-0.0929589 -0.0170702 0
-0.0768638 0.0558739 0
-0.0804598 -0.0144615 0
-0.0686552 0.0204958 0
-0.0653091 -0.0483375 0
-0.0804598 -0.0144615 0
-0.0350688 -0.00423488 0
-0.0487125 -0.0243742 0
-0.0804598 -0.0144615 0
-0.0686552 0.0204958 0
-0.0487125 -0.0243742 0
-0.0449969 0.0120873 0
-0.0768638 0.0558739 0
-0.0521671 0.0537401 0
-0.0686552 0.0204958 0
-0.0528467 0.0415891 0
-0.0521671 0.0537401 0
-0.0489562 0.0487052 0
-0.0528467 0.0415891 0
-0.0324048 0.0333101 0
-0.0686552 0.0204958 0
-0.0528467 0.0415891 0
-0.0449969 0.0120873 0
-0.0375317 0.0232034 0
-0.0528467 0.0415891 0
-0.0324048 0.0333101 0
-0.0375317 0.0232034 0
-0.016276 0.00306938 0
-0.0489562 0.0487052 0
-0.0443208 0.024062 0
-0.0324048 0.0333101 0
0.00158106 -0.00585518 0
-0.0443208 0.024062 0
-0.0149013 -0.00048897 0
0.00158106 -0.00585518 0
0.00651895 -0.0112819 0
-0.0324048 0.0333101 0
0.00158106 -0.00585518 0
-0.016276 0.00306938 0
-0.0216885 -0.00862907 0
0.00158106 -0.00585518 0
0.00651895 -0.0112819 0
-0.0216885 -0.00862907 0
-0.033017 -0.000787439 0
0 0 0
0 0 0
-0.000633308 0.00601514 0
-0.0364958 0.0356103 0
0 0 0
0 0 0
-0.0364958 0.0356103 0
-0.0376651 -0.0330369 0
-0.000633308 0.00601514 0
-0.0364958 0.0356103 0
-0.00518222 0.0240514 0
0.0122992 0.0388457 0
-0.0364958 0.0356103 0
-0.0376651 -0.0330369 0
0.0122992 0.0388457 0
0.00794881 -0.0290885 0
-0.00518222 0.0240514 0
0.0122992 0.0388457 0
-0.00994868 0.0300183 0
0.0099563 -0.00983371 0
0.0122992 0.0388457 0
0.00794881 -0.0290885 0
0.0099563 -0.00983371 0
0.00121292 0.0343744 0
-0.00994868 0.0300183 0
0.0099563 -0.00983371 0
-0.0149013 -0.00048897 0
-0.000986255 -0.017122 0
0.0099563 -0.00983371 0
0.00121292 0.0343744 0
-0.000986255 -0.017122 0
-0.0106493 0.0623532 0
-0.0149013 -0.00048897 0
-0.000986255 -0.017122 0
0.00651895 -0.0112819 0
-0.0207966 0.00880598 0
-0.000986255 -0.017122 0
-0.0106493 0.0623532 0
-0.0207966 0.00880598 0
-0.0227123 0.0495647 0
0.00651895 -0.0112819 0
-0.0207966 0.00880598 0
-0.033017 -0.000787439 0
-0.0157673 0.00994175 0
-0.0207966 0.00880598 0
-0.0227123 0.0495647 0
-0.0157673 0.00994175 0
0.0072012 0.0239037 0
0 0 0
0 0 0
-0.0376651 -0.0330369 0
-0.0203734 0.0117741 0
0 0 0
0 0 0
-0.0203734 0.0117741 0
-0.0248421 -0.00578941 0
-0.0376651 -0.0330369 0
-0.0203734 0.0117741 0
0.00794881 -0.0290885 0
-0.0309602 0.0318689 0
-0.0203734 0.0117741 0
-0.0248421 -0.00578941 0
-0.0309602 0.0318689 0
-0.0411461 -0.00735144 0
0.00794881 -0.0290885 0
-0.0309602 0.0318689 0
0.00121292 0.0343744 0
-0.0195408 0.0380493 0
-0.0309602 0.0318689 0
-0.0411461 -0.00735144 0
-0.0195408 0.0380493 0
-0.0191003 -0.00154121 0
0.00121292 0.0343744 0
-0.0195408 0.0380493 0
-0.0106493 0.0623532 0
-0.00164563 0.0234142 0
-0.0195408 0.0380493 0
-0.0191003 -0.00154121 0
-0.00164563 0.0234142 0
0.0148724 -0.00669768 0
-0.0106493 0.0623532 0
-0.00164563 0.0234142 0
-0.0227123 0.0495647 0
-0.0145346 0.0161241 0
-0.00164563 0.0234142 0
0.0148724 -0.00669768 0
-0.0145346 0.0161241 0
-0.0120495 -0.021417 0
-0.0227123 0.0495647 0
-0.0145346 0.0161241 0
0.0072012 0.0239037 0
0.023749 0.0124151 0
-0.0145346 0.0161241 0
-0.0120495 -0.021417 0
0.023749 0.0124151 0
0.0123006 -0.00759314 0
0 0 0
0 0 0
-0.0248421 -0.00578941 0
-0.0168707 -0.00400383 0
0 0 0
0 0 0
-0.0168707 -0.00400383 0
-0.00295563 -0.0120257 0
-0.0248421 -0.00578941 0
-0.0168707 -0.00400383 0
-0.0411461 -0.00735144 0
-0.0367398 -0.0173931 0
-0.0168707 -0.00400383 0
-0.00295563 -0.0120257 0
-0.0367398 -0.0173931 0
-0.0238221 -0.029529 0
-0.0411461 -0.00735144 0
-0.0367398 -0.0173931 0
-0.0191003 -0.00154121 0
-0.0255083 -0.0209966 0
-0.0367398 -0.0173931 0
-0.0238221 -0.029529 0
-0.0255083 -0.0209966 0
-0.0268586 -0.0395167 0
-0.0191003 -0.00154121 0
-0.0255083 -0.0209966 0
0.0148724 -0.00669768 0
0.00917807 -0.0018286 0
-0.0255083 -0.0209966 0
-0.0268586 -0.0395167 0
0.00917807 -0.0018286 0
-0.0116485 -0.0328961 0
0.0148724 -0.00669768 0
0.00917807 -0.0018286 0
-0.0120495 -0.021417 0
-0.00253266 0.0085805 0
0.00917807 -0.0018286 0
-0.0116485 -0.0328961 0
-0.00253266 0.0085805 0
-0.00164114 -0.0201708 0
-0.0120495 -0.021417 0
-0.00253266 0.0085805 0
0.0123006 -0.00759314 0
0.00882006 -0.0129408 0
-0.00253266 0.0085805 0
-0.00164114 -0.0201708 0
0.00882006 -0.0129408 0
0.00561001 0.0036956 0
0 0 0
0 0 0
-0.00295563 -0.0120257 0
0.0037937 0.00408768 0
0 0 0
0 0 0
0.0037937 0.00408768 0
0 0 0
-0.00295563 -0.0120257 0
0.0037937 0.00408768 0
-0.0238221 -0.029529 0
-0.00940349 -0.00293104 0
0.0037937 0.00408768 0
0 0 0
-0.00940349 -0.00293104 0
0 0 0
-0.0238221 -0.029529 0
-0.00940349 -0.00293104 0
-0.0268586 -0.0395167 0
-0.0113863 -0.027903 0
-0.00940349 -0.00293104 0
0 0 0
-0.0113863 -0.027903 0
0 0 0
-0.0268586 -0.0395167 0
-0.0113863 -0.027903 0
-0.0116485 -0.0328961 0
-0.0103686 -0.0538465 0
-0.0113863 -0.027903 0
0 0 0
-0.0103686 -0.0538465 0
0 0 0
-0.0116485 -0.0328961 0
-0.0103686 -0.0538465 0
-0.00164114 -0.0201708 0
-0.00158045 -0.0683281 0
-0.0103686 -0.0538465 0
0 0 0
-0.00158045 -0.0683281 0
0 0 0
-0.00164114 -0.0201708 0
-0.00158045 -0.0683281 0
0.00561001 0.0036956 0
-0.00690423 -0.0788106 0
-0.00158045 -0.0683281 0
0 0 0
-0.00690423 -0.0788106 0
0 0 0
0.179788 0.00825157 0
0.179279 0.00756441 0
0.18369 0.00575374 0
0.174793 0.0052283 0
0.179279 0.00756441 0
0.128782 0.00325292 0
0.174793 0.0052283 0
0.126967 0.00230019 0
0.18369 0.00575374 0
0.174793 0.0052283 0
0.185847 0.00400333 0
0.172115 0.0034446 0
0.174793 0.0052283 0
0.126967 0.00230019 0
0.172115 0.0034446 0
0.125488 0.00154164 0
0.188068 0.00838438 0
0.0831841 0.00632297 0
0.180366 0.00809375 0
0.0873913 0.00613647 0
0.0831841 0.00632297 0
0.249034 -3.23828e-07 0
0.0873913 0.00613647 0
0.234222 -2.57949e-07 0
0.180366 0.00809375 0
0.0873913 0.00613647 0
0.173172 0.00778213 0
0.0909779 0.00567048 0
0.0873913 0.00613647 0
0.234222 -2.57949e-07 0
0.0909779 0.00567048 0
0.220696 -1.11198e-07 0
0.173172 0.00778213 0
0.0909779 0.00567048 0
0.166256 0.00726584 0
0.0942679 0.00539148 0
0.0909779 0.00567048 0
0.220696 -1.11198e-07 0
0.0942679 0.00539148 0
0.208209 -4.08113e-08 0
0.166256 0.00726584 0
0.0942679 0.00539148 0
0.15995 0.00662643 0
0.0972858 0.00491484 0
0.0942679 0.00539148 0
0.208209 -4.08113e-08 0
0.0972858 0.00491484 0
0.196691 1.95582e-07 0
0.15995 0.00662643 0
0.0972858 0.00491484 0
0.154318 0.00601453 0
0.0999891 0.00461391 0
0.0972858 0.00491484 0
0.196691 1.95582e-07 0
0.0999891 0.00461391 0
0.186196 3.07918e-07 0
0.154318 0.00601453 0
0.0999891 0.00461391 0
0.149295 0.00559026 0
0.102325 0.0041359 0
0.0999891 0.00461391 0
0.186196 3.07918e-07 0
0.102325 0.0041359 0
0.176757 5.58747e-07 0
0.149295 0.00559026 0
0.102325 0.0041359 0
0.144849 0.00520305 0
0.104243 0.00401683 0
0.102325 0.0041359 0
0.176757 5.58747e-07 0
0.104243 0.00401683 0
0.168293 5.11406e-07 0
0.144849 0.00520305 0
0.104243 0.00401683 0
0.14088 0.00503673 0
0.105756 0.00365179 0
0.104243 0.00401683 0
0.168293 5.11406e-07 0
0.105756 0.00365179 0
0.160645 7.15477e-07 0
0.14088 0.00503673 0
0.105756 0.00365179 0
0.137282 0.00475096 0
0.106854 0.00359614 0
0.105756 0.00365179 0
0.160645 7.15477e-07 0
0.106854 0.00359614 0
0.153798 7.09061e-07 0
0.137282 0.00475096 0
0.106854 0.00359614 0
0.134006 0.00457575 0
0.107565 0.00312346 0
0.106854 0.00359614 0
0.153798 7.09061e-07 0
0.107565 0.00312346 0
0.147777 9.88275e-07 0
0.134006 0.00457575 0
0.107565 0.00312346 0
0.131121 0.00400234 0
0.10806 0.00315564 0
0.107565 0.00312346 0
0.147777 9.88275e-07 0
0.10806 0.00315564 0
0.142388 5.86244e-07 0
0.131121 0.00400234 0
0.10806 0.00315564 0