# vtk DataFile Version 3.0
#This file was generated by the deal.II library on 2026/3/26 at 11:13:21
ASCII
DATASET UNSTRUCTURED_GRID

POINTS 3648 double
0 0 0
0.214286 0 0
0 0.25 0
0.214286 0.25 0
0 0.25 0
0.214286 0.25 0
0 0.5 0
0.214286 0.5 0
0.214286 0 0
0.428571 0 0
0.214286 0.25 0
0.428571 0.25 0
0.214286 0.25 0
0.428571 0.25 0
0.214286 0.5 0
0.428571 0.5 0
0.428571 0 0
0.642857 0 0
0.428571 0.25 0
0.642857 0.25 0
0.428571 0.25 0
0.642857 0.25 0
0.428571 0.5 0
0.642857 0.5 0
0.428571 0.5 0
0.642857 0.5 0
0.428571 0.75 0
0.642857 0.75 0
0.642857 0 0
0.857143 0 0
0.642857 0.25 0
0.857143 0.25 0
0.642857 0.25 0
0.857143 0.25 0
0.642857 0.5 0
0.857143 0.5 0
0.642857 0.5 0
0.857143 0.5 0
0.642857 0.75 0
0.857143 0.75 0
0.857143 0 0
1.07143 0 0
0.857143 0.25 0
1.07143 0.25 0
0.857143 0.25 0
1.07143 0.25 0
0.857143 0.5 0
1.07143 0.5 0
0.857143 0.5 0
1.07143 0.5 0
0.857143 0.75 0
1.07143 0.75 0
1.07143 0 0
1.28571 0 0
1.07143 0.25 0
1.28571 0.25 0
1.07143 0.25 0
1.28571 0.25 0
1.07143 0.5 0
1.28571 0.5 0
1.07143 0.5 0
1.28571 0.5 0
1.07143 0.75 0
1.28571 0.75 0
1.28571 0 0
1.5 0 0
1.28571 0.25 0
1.5 0.25 0
1.28571 0.25 0
1.5 0.25 0
1.28571 0.5 0
1.5 0.5 0
1.5 0 0
1.71429 0 0
1.5 0.25 0
1.71429 0.25 0
1.5 0.25 0
1.71429 0.25 0
1.5 0.5 0
1.71429 0.5 0
1.71429 0 0
1.92857 0 0
1.71429 0.25 0
1.92857 0.25 0
1.71429 0.25 0
1.92857 0.25 0
1.71429 0.5 0
1.92857 0.5 0
1.92857 0 0
2.14286 0 0
1.92857 0.25 0
2.14286 0.25 0
1.92857 0.25 0
2.14286 0.25 0
1.92857 0.5 0
2.14286 0.5 0
0 3 0
0 2.75 0
0.214286 3 0
0.214286 2.75 0
0.214286 3 0
0.214286 2.75 0
0.428571 3 0
0.428571 2.75 0
0.428571 3 0
0.428571 2.75 0
0.642857 3 0
0.642857 2.75 0
0.642857 3 0
0.642857 2.75 0
0.857143 3 0
0.857143 2.75 0
0.857143 3 0
0.857143 2.75 0
1.07143 3 0
1.07143 2.75 0
1.07143 3 0
1.07143 2.75 0
1.28571 3 0
1.28571 2.75 0
1.28571 3 0
1.28571 2.75 0
1.5 3 0
1.5 2.75 0
1.5 3 0
1.5 2.75 0
1.71429 3 0
1.71429 2.75 0
1.71429 3 0
1.71429 2.75 0
1.92857 3 0
1.92857 2.75 0
1.92857 3 0
1.92857 2.75 0
2.14286 3 0
2.14286 2.75 0
0 2.75 0
0 2.5 0
0.214286 2.75 0
0.214286 2.5 0
0.214286 2.75 0
0.214286 2.5 0
0.428571 2.75 0
0.428571 2.5 0
0.428571 2.75 0
0.428571 2.5 0
0.642857 2.75 0
0.642857 2.5 0
0.642857 2.75 0
0.642857 2.5 0
0.857143 2.75 0
0.857143 2.5 0
0.857143 2.75 0
0.857143 2.5 0
1.07143 2.75 0
1.07143 2.5 0
1.07143 2.75 0
1.07143 2.5 0
1.28571 2.75 0
1.28571 2.5 0
1.28571 2.75 0
1.28571 2.5 0
1.5 2.75 0
1.5 2.5 0
1.5 2.75 0
1.5 2.5 0
1.71429 2.75 0
1.71429 2.5 0
1.71429 2.75 0
1.71429 2.5 0
1.92857 2.75 0
1.92857 2.5 0
1.92857 2.75 0
1.92857 2.5 0
2.14286 2.75 0
2.14286 2.5 0
0.428571 2.5 0
0.428571 2.25 0
0.642857 2.5 0
0.642857 2.25 0
0.642857 2.5 0
0.642857 2.25 0
0.857143 2.5 0
0.857143 2.25 0
0.857143 2.5 0
0.857143 2.25 0
1.07143 2.5 0
1.07143 2.25 0
1.07143 2.5 0
1.07143 2.25 0
1.28571 2.5 0
1.28571 2.25 0
0.214286 0.75 0
0.321429 0.75 0
0.214286 0.875 0
0.321429 0.875 0
0.321429 0.75 0
0.428571 0.75 0
0.321429 0.875 0
0.428571 0.875 0
0.214286 0.875 0
0.321429 0.875 0
0.214286 1 0
0.321429 1 0
0.321429 0.875 0
0.428571 0.875 0
0.321429 1 0
0.428571 1 0
0.428571 0.75 0
0.535714 0.75 0
0.428571 0.875 0
0.535714 0.875 0
0.535714 0.75 0
0.642857 0.75 0
0.535714 0.875 0
0.642857 0.875 0
0.428571 0.875 0
0.535714 0.875 0
0.428571 1 0
0.535714 1 0
0.535714 0.875 0
0.642857 0.875 0
0.535714 1 0
0.642857 1 0
0.642857 0.75 0
0.75 0.75 0
0.642857 0.875 0
0.75 0.875 0
0.75 0.75 0
0.857143 0.75 0
0.75 0.875 0
0.857143 0.875 0
0.642857 0.875 0
0.75 0.875 0
0.642857 1 0
0.75 1 0
0.75 0.875 0
0.857143 0.875 0
0.75 1 0
0.857143 1 0
0.857143 0.75 0
0.964286 0.75 0
0.857143 0.875 0
0.964286 0.875 0
0.964286 0.75 0
1.07143 0.75 0
0.964286 0.875 0
1.07143 0.875 0
0.857143 0.875 0
0.964286 0.875 0
0.857143 1 0
0.964286 1 0
0.964286 0.875 0
1.07143 0.875 0
0.964286 1 0
1.07143 1 0
1.07143 0.75 0
1.17857 0.75 0
1.07143 0.875 0
1.17857 0.875 0
1.17857 0.75 0
1.28571 0.75 0
1.17857 0.875 0
1.28571 0.875 0
1.07143 0.875 0
1.17857 0.875 0
1.07143 1 0
1.17857 1 0
1.17857 0.875 0
1.28571 0.875 0
1.17857 1 0
1.28571 1 0
0.214286 2 0
0.214286 1.875 0
0.321429 2 0
0.321429 1.875 0
0.214286 1.875 0
0.214286 1.75 0
0.321429 1.875 0
0.321429 1.75 0
0.321429 2 0
0.321429 1.875 0
0.428571 2 0
0.428571 1.875 0
0.321429 1.875 0
0.321429 1.75 0
0.428571 1.875 0
0.428571 1.75 0
0.428571 2 0
0.428571 1.875 0
0.535714 2 0
0.535714 1.875 0
0.428571 1.875 0
0.428571 1.75 0
0.535714 1.875 0
0.535714 1.75 0
0.535714 2 0
0.535714 1.875 0
0.642857 2 0
0.642857 1.875 0
0.535714 1.875 0
0.535714 1.75 0
0.642857 1.875 0
0.642857 1.75 0
0.642857 2 0
0.642857 1.875 0
0.75 2 0
0.75 1.875 0
0.642857 1.875 0
0.642857 1.75 0
0.75 1.875 0
0.75 1.75 0
0.75 2 0
0.75 1.875 0
0.857143 2 0
0.857143 1.875 0
0.75 1.875 0
0.75 1.75 0
0.857143 1.875 0
0.857143 1.75 0
0.857143 2 0
0.857143 1.875 0
0.964286 2 0
0.964286 1.875 0
0.857143 1.875 0
0.857143 1.75 0
0.964286 1.875 0
0.964286 1.75 0
0.964286 2 0
0.964286 1.875 0
1.07143 2 0
1.07143 1.875 0
0.964286 1.875 0
0.964286 1.75 0
1.07143 1.875 0
1.07143 1.75 0
1.07143 2 0
1.07143 1.875 0
1.17857 2 0
1.17857 1.875 0
1.07143 1.875 0
1.07143 1.75 0
1.17857 1.875 0
1.17857 1.75 0
1.17857 2 0
1.17857 1.875 0
1.28571 2 0
1.28571 1.875 0
1.17857 1.875 0
1.17857 1.75 0
1.28571 1.875 0
1.28571 1.75 0
0.214286 1.25 0
0.214286 1.125 0
0.321429 1.25 0
0.321429 1.125 0
0.214286 1.125 0
0.214286 1 0
0.321429 1.125 0
0.321429 1 0
0.321429 1.25 0
0.321429 1.125 0
0.428571 1.25 0
0.428571 1.125 0
0.321429 1.125 0
0.321429 1 0
0.428571 1.125 0
0.428571 1 0
0.428571 1.25 0
0.428571 1.125 0
0.535714 1.25 0
0.535714 1.125 0
0.428571 1.125 0
0.428571 1 0
0.535714 1.125 0
0.535714 1 0
0.535714 1.25 0
0.535714 1.125 0
0.642857 1.25 0
0.642857 1.125 0
0.535714 1.125 0
0.535714 1 0
0.642857 1.125 0
0.642857 1 0
0.642857 1.25 0
0.642857 1.125 0
0.75 1.25 0
0.75 1.125 0
0.642857 1.125 0
0.642857 1 0
0.75 1.125 0
0.75 1 0
0.75 1.25 0
0.75 1.125 0
0.857143 1.25 0
0.857143 1.125 0
0.75 1.125 0
0.75 1 0
0.857143 1.125 0
0.857143 1 0
0.857143 1.25 0
0.857143 1.125 0
0.964286 1.25 0
0.964286 1.125 0
0.857143 1.125 0
0.857143 1 0
0.964286 1.125 0
0.964286 1 0
0.964286 1.25 0
0.964286 1.125 0
1.07143 1.25 0
1.07143 1.125 0
0.964286 1.125 0
0.964286 1 0
1.07143 1.125 0
1.07143 1 0
1.07143 1.25 0
1.07143 1.125 0
1.17857 1.25 0
1.17857 1.125 0
1.07143 1.125 0
1.07143 1 0
1.17857 1.125 0
1.17857 1 0
1.17857 1.25 0
1.17857 1.125 0
1.28571 1.25 0
1.28571 1.125 0
1.17857 1.125 0
1.17857 1 0
1.28571 1.125 0
1.28571 1 0
0.214286 2.25 0
0.214286 2.125 0
0.321429 2.25 0
0.321429 2.125 0
0.214286 2.125 0
0.214286 2 0
0.321429 2.125 0
0.321429 2 0
0.321429 2.25 0
0.321429 2.125 0
0.428571 2.25 0
0.428571 2.125 0
0.321429 2.125 0
0.321429 2 0
0.428571 2.125 0
0.428571 2 0
0.428571 2.25 0
0.428571 2.125 0
0.535714 2.25 0
0.535714 2.125 0
0.428571 2.125 0
0.428571 2 0
0.535714 2.125 0
0.535714 2 0
0.535714 2.25 0
0.535714 2.125 0
0.642857 2.25 0
0.642857 2.125 0
0.535714 2.125 0
0.535714 2 0
0.642857 2.125 0
0.642857 2 0
0.642857 2.25 0
0.642857 2.125 0
0.75 2.25 0
0.75 2.125 0
0.642857 2.125 0
0.642857 2 0
0.75 2.125 0
0.75 2 0
0.75 2.25 0
0.75 2.125 0
0.857143 2.25 0
0.857143 2.125 0
0.75 2.125 0
0.75 2 0
0.857143 2.125 0
0.857143 2 0
0.857143 2.25 0
0.857143 2.125 0
0.964286 2.25 0
0.964286 2.125 0
0.857143 2.125 0
0.857143 2 0
0.964286 2.125 0
0.964286 2 0
0.964286 2.25 0
0.964286 2.125 0
1.07143 2.25 0
1.07143 2.125 0
0.964286 2.125 0
0.964286 2 0
1.07143 2.125 0
1.07143 2 0
1.07143 2.25 0
1.07143 2.125 0
1.17857 2.25 0
1.17857 2.125 0
1.07143 2.125 0
1.07143 2 0
1.17857 2.125 0
1.17857 2 0
1.17857 2.25 0
1.17857 2.125 0
1.28571 2.25 0
1.28571 2.125 0
1.17857 2.125 0
1.17857 2 0
1.28571 2.125 0
1.28571 2 0
0 0.5 0
0.107143 0.5 0
0 0.625 0
0.107143 0.625 0
0.107143 0.5 0
0.214286 0.5 0
0.107143 0.625 0
0.214286 0.625 0
0 0.625 0
0.107143 0.625 0
0 0.75 0
0.107143 0.75 0
0.107143 0.625 0
0.214286 0.625 0
0.107143 0.75 0
0.214286 0.75 0
0.214286 0.5 0
0.321429 0.5 0
0.214286 0.625 0
0.321429 0.625 0
0.321429 0.5 0
0.428571 0.5 0
0.321429 0.625 0
0.428571 0.625 0
0.214286 0.625 0
0.321429 0.625 0
0.214286 0.75 0
0.321429 0.75 0
0.321429 0.625 0
0.428571 0.625 0
0.321429 0.75 0
0.428571 0.75 0
1.28571 0.5 0
1.39286 0.5 0
1.28571 0.625 0
1.39286 0.625 0
1.39286 0.5 0
1.5 0.5 0
1.39286 0.625 0
1.5 0.625 0
1.28571 0.625 0
1.39286 0.625 0
1.28571 0.75 0
1.39286 0.75 0
1.39286 0.625 0
1.5 0.625 0
1.39286 0.75 0
1.5 0.75 0
1.28571 0.75 0
1.39286 0.75 0
1.28571 0.875 0
1.39286 0.875 0
1.39286 0.75 0
1.5 0.75 0
1.39286 0.875 0
1.5 0.875 0
1.28571 0.875 0
1.39286 0.875 0
1.28571 1 0
1.39286 1 0
1.39286 0.875 0
1.5 0.875 0
1.39286 1 0
1.5 1 0
1.5 0.5 0
1.60714 0.5 0
1.5 0.625 0
1.60714 0.625 0
1.60714 0.5 0
1.71429 0.5 0
1.60714 0.625 0
1.71429 0.625 0
1.5 0.625 0
1.60714 0.625 0
1.5 0.75 0
1.60714 0.75 0
1.60714 0.625 0
1.71429 0.625 0
1.60714 0.75 0
1.71429 0.75 0
1.71429 0.5 0
1.82143 0.5 0
1.71429 0.625 0
1.82143 0.625 0
1.82143 0.5 0
1.92857 0.5 0
1.82143 0.625 0
1.92857 0.625 0
1.71429 0.625 0
1.82143 0.625 0
1.71429 0.75 0
1.82143 0.75 0
1.82143 0.625 0
1.92857 0.625 0
1.82143 0.75 0
1.92857 0.75 0
1.92857 0.5 0
2.03571 0.5 0
1.92857 0.625 0
2.03571 0.625 0
2.03571 0.5 0
2.14286 0.5 0
2.03571 0.625 0
2.14286 0.625 0
1.92857 0.625 0
2.03571 0.625 0
1.92857 0.75 0
2.03571 0.75 0
2.03571 0.625 0
2.14286 0.625 0
2.03571 0.75 0
2.14286 0.75 0
2.14286 0 0
2.25 0 0
2.14286 0.125 0
2.25 0.125 0
2.25 0 0
2.35714 0 0
2.25 0.125 0
2.35714 0.125 0
2.14286 0.125 0
2.25 0.125 0
2.14286 0.25 0
2.25 0.25 0
2.25 0.125 0
2.35714 0.125 0
2.25 0.25 0
2.35714 0.25 0
2.14286 0.25 0
2.25 0.25 0
2.14286 0.375 0
2.25 0.375 0
2.25 0.25 0
2.35714 0.25 0
2.25 0.375 0
2.35714 0.375 0
2.14286 0.375 0
2.25 0.375 0
2.14286 0.5 0
2.25 0.5 0
2.25 0.375 0
2.35714 0.375 0
2.25 0.5 0
2.35714 0.5 0
2.14286 0.5 0
2.25 0.5 0
2.14286 0.625 0
2.25 0.625 0
2.25 0.5 0
2.35714 0.5 0
2.25 0.625 0
2.35714 0.625 0
2.14286 0.625 0
2.25 0.625 0
2.14286 0.75 0
2.25 0.75 0
2.25 0.625 0
2.35714 0.625 0
2.25 0.75 0
2.35714 0.75 0
2.35714 0 0
2.46429 0 0
[...]
POINT_DATA 3648
VECTORS velocity double
0 0 0
0 0 0
0 0 0
-0.000110056 -0.0005975 0
0 0 0
-0.000110056 -0.0005975 0
0 0 0
-0.00227465 0.00277305 0
0 0 0
0 0 0
-0.000110056 -0.0005975 0
-0.00166088 0.00112059 0
-0.000110056 -0.0005975 0
-0.00166088 0.00112059 0
-0.00227465 0.00277305 0
-0.00570363 0.00439354 0
0 0 0
0 0 0
-0.00166088 0.00112059 0
-0.00435572 0.000749449 0
-0.00166088 0.00112059 0
-0.00435572 0.000749449 0
-0.00570363 0.00439354 0
-0.00754137 0.00361234 0
-0.00570363 0.00439354 0
-0.00754137 0.00361234 0
0.0010498 0.00627486 0
-0.000231241 0.00537158 0
0 0 0
0 0 0
-0.00435572 0.000749449 0
-0.00403513 -0.00248565 0
-0.00435572 0.000749449 0
-0.00403513 -0.00248565 0
-0.00754137 0.00361234 0
-0.00944594 -0.00266731 0
-0.00754137 0.00361234 0
-0.00944594 -0.00266731 0
-0.000231241 0.00537158 0
-0.00358511 0.00166155 0
0 0 0
0 0 0
-0.00403513 -0.00248565 0
0.00372387 -0.00807715 0
-0.00403513 -0.00248565 0
0.00372387 -0.00807715 0
-0.00944594 -0.00266731 0
-0.0152112 -0.00923777 0
-0.00944594 -0.00266731 0
-0.0152112 -0.00923777 0
-0.00358511 0.00166155 0
-0.00791267 -0.00181455 0
0 0 0
0 0 0
0.00372387 -0.00807715 0
0.0203049 -0.0132706 0
0.00372387 -0.00807715 0
0.0203049 -0.0132706 0
-0.0152112 -0.00923777 0
-0.0237529 -0.0204352 0
-0.0152112 -0.00923777 0
-0.0237529 -0.0204352 0
-0.00791267 -0.00181455 0
-0.0134642 -0.0115341 0
0 0 0
0 0 0
0.0203049 -0.0132706 0
0.038736 -0.0106069 0
0.0203049 -0.0132706 0
0.038736 -0.0106069 0
-0.0237529 -0.0204352 0
-0.0243449 -0.0227505 0
0 0 0
0 0 0
0.038736 -0.0106069 0
0.0477362 -0.00280727 0
0.038736 -0.0106069 0
0.0477362 -0.00280727 0
-0.0243449 -0.0227505 0
-0.0485214 0.0285441 0
0 0 0
0 0 0
0.0477362 -0.00280727 0
0.046162 0.00187975 0
0.0477362 -0.00280727 0
0.046162 0.00187975 0
-0.0485214 0.0285441 0
-0.085664 0.0167549 0
0 0 0
0 0 0
0.046162 0.00187975 0
0.0299235 0.0164645 0
0.046162 0.00187975 0
0.0299235 0.0164645 0
-0.085664 0.0167549 0
-0.0547696 -0.0142393 0
0 0 0
0 0 0
0 0 0
-0.000110052 0.000597506 0
0 0 0
-0.000110052 0.000597506 0
0 0 0
-0.00166087 -0.00112058 0
0 0 0
-0.00166087 -0.00112058 0
0 0 0
-0.0043557 -0.000749442 0
0 0 0
-0.0043557 -0.000749442 0
0 0 0
-0.0040351 0.00248565 0
0 0 0
-0.0040351 0.00248565 0
0 0 0
0.0037239 0.00807715 0
0 0 0
0.0037239 0.00807715 0
0 0 0
0.0203049 0.0132705 0
0 0 0
0.0203049 0.0132705 0
0 0 0
0.038736 0.0106069 0
0 0 0
0.038736 0.0106069 0
0 0 0
0.0477362 0.00280726 0
0 0 0
0.0477362 0.00280726 0
0 0 0
0.0461619 -0.00187974 0
0 0 0
0.0461619 -0.00187974 0
0 0 0
0.0299234 -0.0164645 0
0 0 0
0 0 0
-0.000110052 0.000597506 0
-0.00227465 -0.00277305 0
-0.000110052 0.000597506 0
-0.00227465 -0.00277305 0
-0.00166087 -0.00112058 0
-0.00570363 -0.00439352 0
-0.00166087 -0.00112058 0
-0.00570363 -0.00439352 0
-0.0043557 -0.000749442 0
-0.00754137 -0.00361233 0
-0.0043557 -0.000749442 0
-0.00754137 -0.00361233 0
-0.0040351 0.00248565 0
-0.00944594 0.00266731 0
-0.0040351 0.00248565 0
-0.00944594 0.00266731 0
0.0037239 0.00807715 0
-0.0152112 0.00923775 0
0.0037239 0.00807715 0
-0.0152112 0.00923775 0
0.0203049 0.0132705 0
-0.023753 0.0204352 0
0.0203049 0.0132705 0
-0.023753 0.0204352 0
0.038736 0.0106069 0
-0.0243449 0.0227504 0
0.038736 0.0106069 0
-0.0243449 0.0227504 0
0.0477362 0.00280726 0
-0.0485214 -0.0285441 0
0.0477362 0.00280726 0
-0.0485214 -0.0285441 0
0.0461619 -0.00187974 0
-0.085664 -0.0167549 0
0.0461619 -0.00187974 0
-0.085664 -0.0167549 0
0.0299234 -0.0164645 0
-0.0547695 0.0142393 0
-0.00570363 -0.00439352 0
0.00104978 -0.00627485 0
-0.00754137 -0.00361233 0
-0.00023126 -0.00537158 0
-0.00754137 -0.00361233 0
-0.00023126 -0.00537158 0
-0.00944594 0.00266731 0
-0.00358513 -0.00166155 0
-0.00944594 0.00266731 0
-0.00358513 -0.00166155 0
-0.0152112 0.00923775 0
-0.00791267 0.00181454 0
-0.0152112 0.00923775 0
-0.00791267 0.00181454 0
-0.023753 0.0204352 0
-0.0134642 0.011534 0
0.00547189 0.00530907 0
0.00368447 0.00564219 0
-0.0121881 0.00639285 0
-0.0119497 0.00653994 0
0.00368447 0.00564219 0
0.0010498 0.00627486 0
-0.0119497 0.00653994 0
-0.00825531 0.00442475 0
-0.0121881 0.00639285 0
-0.0119497 0.00653994 0
0.0373114 -0.0020072 0
0.0530863 -0.00353465 0
-0.0119497 0.00653994 0
-0.00825531 0.00442475 0
0.0530863 -0.00353465 0
0.0655229 -0.00437851 0
0.0010498 0.00627486 0
0.000401925 0.00581815 0
-0.00825531 0.00442475 0
-0.00383436 0.00361768 0
0.000401925 0.00581815 0
-0.000231241 0.00537158 0
-0.00383436 0.00361768 0
0.00131038 0.00269644 0
-0.00825531 0.00442475 0
-0.00383436 0.00361768 0
0.0655229 -0.00437851 0
0.0755066 -0.00463989 0
-0.00383436 0.00361768 0
0.00131038 0.00269644 0
0.0755066 -0.00463989 0
0.0835564 -0.00482193 0
-0.000231241 0.00537158 0
-0.00138422 0.00358596 0
0.00131038 0.00269644 0
0.00658051 0.00187201 0
-0.00138422 0.00358596 0
-0.00358511 0.00166155 0
0.00658051 0.00187201 0
0.0115044 0.000623162 0
0.00131038 0.00269644 0
0.00658051 0.00187201 0
0.0835564 -0.00482193 0
0.0901054 -0.00488818 0
0.00658051 0.00187201 0
0.0115044 0.000623162 0
0.0901054 -0.00488818 0
0.0953916 -0.00504849 0
-0.00358511 0.00166155 0
-0.00603035 -0.000149196 0
0.0115044 0.000623162 0
0.0156161 -0.000660794 0
-0.00603035 -0.000149196 0
-0.00791267 -0.00181455 0
0.0156161 -0.000660794 0
0.0186879 -0.00233921 0
0.0115044 0.000623162 0
0.0156161 -0.000660794 0
0.0953916 -0.00504849 0
0.0996481 -0.00532182 0
0.0156161 -0.000660794 0
0.0186879 -0.00233921 0
0.0996481 -0.00532182 0
0.102935 -0.00559975 0
-0.00791267 -0.00181455 0
-0.0101004 -0.00654878 0
0.0186879 -0.00233921 0
0.0199084 -0.00457699 0
-0.0101004 -0.00654878 0
-0.0134642 -0.0115341 0
0.0199084 -0.00457699 0
0.0179149 -0.00698731 0
0.0186879 -0.00233921 0
0.0199084 -0.00457699 0
0.102935 -0.00559975 0
0.10538 -0.00607521 0
0.0199084 -0.00457699 0
0.0179149 -0.00698731 0
0.10538 -0.00607521 0
0.107129 -0.00550053 0
0.0373114 0.00200721 0
0.149197 0.00903687 0
0.0530863 0.00353466 0
0.144172 0.0087373 0
0.149197 0.00903687 0
0.278376 0.00081807 0
0.144172 0.0087373 0
0.26974 0.00132523 0
0.0530863 0.00353466 0
0.144172 0.0087373 0
0.0655229 0.00437851 0
0.139935 0.00822954 0
0.144172 0.0087373 0
0.26974 0.00132523 0
0.139935 0.00822954 0
0.26172 0.00180149 0
0.0655229 0.00437851 0
0.139935 0.00822954 0
0.0755066 0.00463989 0
0.136578 0.00784422 0
0.139935 0.00822954 0
0.26172 0.00180149 0
0.136578 0.00784422 0
0.254253 0.00220392 0
0.0755066 0.00463989 0
0.136578 0.00784422 0
0.0835564 0.00482193 0
0.134073 0.0072987 0
0.136578 0.00784422 0
0.254253 0.00220392 0
0.134073 0.0072987 0
0.247261 0.0024959 0
0.0835564 0.00482193 0
0.134073 0.0072987 0
0.0901054 0.00488819 0
0.132241 0.00706154 0
0.134073 0.0072987 0
0.247261 0.0024959 0
0.132241 0.00706154 0
0.240726 0.00272085 0
0.0901054 0.00488819 0
0.132241 0.00706154 0
0.0953916 0.00504849 0
0.130909 0.00663036 0
0.132241 0.00706154 0
0.240726 0.00272085 0
0.130909 0.00663036 0
0.234588 0.00286122 0
0.0953916 0.00504849 0
0.130909 0.00663036 0
0.0996481 0.00532182 0
0.129847 0.00665093 0
0.130909 0.00663036 0
0.234588 0.00286122 0
0.129847 0.00665093 0
0.228802 0.00292281 0
0.0996481 0.00532182 0
0.129847 0.00665093 0
0.102935 0.00559975 0
0.128883 0.00627589 0
0.129847 0.00665093 0
0.228802 0.00292281 0
0.128883 0.00627589 0
0.223331 0.00291376 0
0.102935 0.00559975 0
0.128883 0.00627589 0
0.10538 0.00607521 0
0.12783 0.00641918 0
0.128883 0.00627589 0
0.223331 0.00291376 0
0.12783 0.00641918 0
0.218169 0.00273078 0
0.10538 0.00607521 0
0.12783 0.00641918 0
0.107129 0.00550053 0
0.126594 0.00525372 0
0.12783 0.00641918 0
0.218169 0.00273078 0
0.126594 0.00525372 0
0.213488 0.00218809 0
0.278376 -0.000818068 0
0.149197 -0.00903687 0
0.26974 -0.00132523 0
0.144172 -0.0087373 0
0.149197 -0.00903687 0
0.0373114 -0.0020072 0
0.144172 -0.0087373 0
0.0530863 -0.00353465 0
0.26974 -0.00132523 0
0.144172 -0.0087373 0
0.26172 -0.00180149 0
0.139935 -0.00822954 0
0.144172 -0.0087373 0
0.0530863 -0.00353465 0
0.139935 -0.00822954 0
0.0655229 -0.00437851 0
0.26172 -0.00180149 0
0.139935 -0.00822954 0
0.254253 -0.00220392 0
0.136578 -0.00784422 0
0.139935 -0.00822954 0
0.0655229 -0.00437851 0
0.136578 -0.00784422 0
0.0755066 -0.00463989 0
0.254253 -0.00220392 0
0.136578 -0.00784422 0
0.247261 -0.00249589 0
0.134073 -0.00729869 0
0.136578 -0.00784422 0
0.0755066 -0.00463989 0
0.134073 -0.00729869 0
0.0835564 -0.00482193 0
0.247261 -0.00249589 0
0.134073 -0.00729869 0
0.240726 -0.00272085 0
0.132241 -0.00706154 0
0.134073 -0.00729869 0
0.0835564 -0.00482193 0
0.132241 -0.00706154 0
0.0901054 -0.00488818 0
0.240726 -0.00272085 0
0.132241 -0.00706154 0
0.234588 -0.00286122 0
0.130909 -0.00663036 0
0.132241 -0.00706154 0
0.0901054 -0.00488818 0
0.130909 -0.00663036 0
0.0953916 -0.00504849 0
0.234588 -0.00286122 0
0.130909 -0.00663036 0
0.228802 -0.00292281 0
0.129847 -0.00665093 0
0.130909 -0.00663036 0
0.0953916 -0.00504849 0
0.129847 -0.00665093 0
0.0996481 -0.00532182 0
0.228802 -0.00292281 0
0.129847 -0.00665093 0
0.223331 -0.00291376 0
0.128883 -0.00627589 0
0.129847 -0.00665093 0
0.0996481 -0.00532182 0
0.128883 -0.00627589 0
0.102935 -0.00559975 0
0.223331 -0.00291376 0
0.128883 -0.00627589 0
0.218169 -0.00273079 0
0.12783 -0.00641918 0
0.128883 -0.00627589 0
0.102935 -0.00559975 0
0.12783 -0.00641918 0
0.10538 -0.00607521 0
0.218169 -0.00273079 0
0.12783 -0.00641918 0
0.213488 -0.00218809 0
0.126594 -0.00525372 0
0.12783 -0.00641918 0
0.10538 -0.00607521 0
0.126594 -0.00525372 0
0.107129 -0.00550053 0
0.00547189 -0.00530907 0
-0.0121881 -0.00639285 0
0.00368446 -0.00564218 0
-0.0119497 -0.00653994 0
-0.0121881 -0.00639285 0
0.0373114 0.00200721 0
-0.0119497 -0.00653994 0
0.0530863 0.00353466 0
0.00368446 -0.00564218 0
-0.0119497 -0.00653994 0
0.00104978 -0.00627485 0
-0.00825531 -0.00442475 0
-0.0119497 -0.00653994 0
0.0530863 0.00353466 0
-0.00825531 -0.00442475 0
0.0655229 0.00437851 0
0.00104978 -0.00627485 0
-0.00825531 -0.00442475 0
0.000401907 -0.00581814 0
-0.00383436 -0.00361768 0
-0.00825531 -0.00442475 0
0.0655229 0.00437851 0
-0.00383436 -0.00361768 0
0.0755066 0.00463989 0
0.000401907 -0.00581814 0
-0.00383436 -0.00361768 0
-0.00023126 -0.00537158 0
0.00131038 -0.00269643 0
-0.00383436 -0.00361768 0
0.0755066 0.00463989 0
0.00131038 -0.00269643 0
0.0835564 0.00482193 0
-0.00023126 -0.00537158 0
0.00131038 -0.00269643 0
-0.00138424 -0.00358596 0
0.00658051 -0.00187201 0
0.00131038 -0.00269643 0
0.0835564 0.00482193 0
0.00658051 -0.00187201 0
0.0901054 0.00488819 0
-0.00138424 -0.00358596 0
0.00658051 -0.00187201 0
-0.00358513 -0.00166155 0
0.0115044 -0.000623158 0
0.00658051 -0.00187201 0
0.0901054 0.00488819 0
0.0115044 -0.000623158 0
0.0953916 0.00504849 0
-0.00358513 -0.00166155 0
0.0115044 -0.000623158 0
-0.00603037 0.000149194 0
0.0156161 0.000660797 0
0.0115044 -0.000623158 0
0.0953916 0.00504849 0
0.0156161 0.000660797 0
0.0996481 0.00532182 0
-0.00603037 0.000149194 0
0.0156161 0.000660797 0
-0.00791267 0.00181454 0
0.0186879 0.00233921 0
0.0156161 0.000660797 0
0.0996481 0.00532182 0
0.0186879 0.00233921 0
0.102935 0.00559975 0
-0.00791267 0.00181454 0
0.0186879 0.00233921 0
-0.0101003 0.00654876 0
0.0199084 0.00457699 0
0.0186879 0.00233921 0
0.102935 0.00559975 0
0.0199084 0.00457699 0
0.10538 0.00607521 0
-0.0101003 0.00654876 0
0.0199084 0.00457699 0
-0.0134642 0.011534 0
0.0179149 0.00698731 0
0.0199084 0.00457699 0
0.10538 0.00607521 0
0.0179149 0.00698731 0
0.107129 0.00550053 0
0 0 0
-0.000499246 0.00127892 0
0 0 0
-0.00149668 0.00372991 0
-0.000499246 0.00127892 0
-0.00227465 0.00277305 0
-0.00149668 0.00372991 0
-0.00370447 0.00505856 0
0 0 0
-0.00149668 0.00372991 0
0 0 0
0.00246606 0.00270029 0
-0.00149668 0.00372991 0
-0.00370447 0.00505856 0
0.00246606 0.00270029 0
0.00547189 0.00530907 0
-0.00227465 0.00277305 0
-0.00436724 0.00361556 0
-0.00370447 0.00505856 0
-0.00365797 0.00380107 0
-0.00436724 0.00361556 0
-0.00570363 0.00439354 0
-0.00365797 0.00380107 0
-0.00328569 0.00542117 0
-0.00370447 0.00505856 0
-0.00365797 0.00380107 0
0.00547189 0.00530907 0
0.00368447 0.00564219 0
-0.00365797 0.00380107 0
-0.00328569 0.00542117 0
0.00368447 0.00564219 0
0.0010498 0.00627486 0
-0.0237529 -0.0204352 0
-0.0257733 -0.0218338 0
-0.019475 -0.0160545 0
-0.0301288 -0.0117384 0
-0.0257733 -0.0218338 0
-0.0243449 -0.0227505 0
-0.0301288 -0.0117384 0
-0.0479765 -0.0142309 0
-0.019475 -0.0160545 0
-0.0301288 -0.0117384 0
-0.0134642 -0.0115341 0
-0.0169798 0.000362078 0
-0.0301288 -0.0117384 0
-0.0479765 -0.0142309 0
-0.0169798 0.000362078 0
-0.022476 0.000996779 0
-0.0134642 -0.0115341 0
-0.0169798 0.000362078 0
0.0179149 -0.00698731 0
0.0183807 -0.000513232 0
-0.0169798 0.000362078 0
-0.022476 0.000996779 0
0.0183807 -0.000513232 0
0.0243888 0.00128874 0
0.0179149 -0.00698731 0
0.0183807 -0.000513232 0
0.107129 -0.00550053 0
0.108306 -0.00418221 0
0.0183807 -0.000513232 0
0.0243888 0.00128874 0
0.108306 -0.00418221 0
0.10898 -0.00288265 0
-0.0243449 -0.0227505 0
-0.0288017 0.0030501 0
-0.0479765 -0.0142309 0
-0.0492731 0.000860575 0
-0.0288017 0.0030501 0
-0.0485214 0.0285441 0
-0.0492731 0.000860575 0
-0.0276199 0.0279991 0
-0.0479765 -0.0142309 0
-0.0492731 0.000860575 0
-0.022476 0.000996779 0
-0.0333666 0.000124126 0
-0.0492731 0.000860575 0
-0.0276199 0.0279991 0
-0.0333666 0.000124126 0
-0.0328213 0.00291397 0
-0.0485214 0.0285441 0
-0.0715617 0.0231181 0
-0.0276199 0.0279991 0
-0.0132819 0.0333795 0
-0.0715617 0.0231181 0
-0.085664 0.0167549 0
-0.0132819 0.0333795 0
-0.0148684 0.0240626 0
-0.0276199 0.0279991 0
-0.0132819 0.0333795 0
-0.0328213 0.00291397 0
-0.0231112 0.0305609 0
-0.0132819 0.0333795 0
-0.0148684 0.0240626 0
-0.0231112 0.0305609 0
-0.0107721 0.0139945 0
-0.085664 0.0167549 0
-0.0825475 0.000328419 0
-0.0148684 0.0240626 0
-0.00843651 -0.0184045 0
-0.0825475 0.000328419 0
-0.0547696 -0.0142393 0
-0.00843651 -0.0184045 0
-0.0233468 -0.0104233 0
-0.0148684 0.0240626 0
-0.00843651 -0.0184045 0
-0.0107721 0.0139945 0
-0.0177253 -0.00713913 0
-0.00843651 -0.0184045 0
-0.0233468 -0.0104233 0
-0.0177253 -0.00713913 0
-0.0206132 -0.00118853 0
0 0 0
0 0 0
0.0263283 0.00421859 0
-0.0133297 0.0424366 0
0 0 0
0 0 0
-0.0133297 0.0424366 0
-0.0455805 -0.00367442 0
0.0263283 0.00421859 0
-0.0133297 0.0424366 0
0.0299235 0.0164645 0
0.031042 0.0751509 0
-0.0133297 0.0424366 0
-0.0455805 -0.00367442 0
0.031042 0.0751509 0
0.0339842 -0.00186148 0
0.0299235 0.0164645 0
0.031042 0.0751509 0
-0.019269 0.0167617 0
0.0165827 0.0313118 0
0.031042 0.0751509 0
0.0339842 -0.00186148 0
0.0165827 0.0313118 0
0.0103159 0.0449121 0
-0.019269 0.0167617 0
0.0165827 0.0313118 0
-0.0547696 -0.0142393 0
-0.0407819 0.00463911 0
0.0165827 0.0313118 0
0.0103159 0.0449121 0
-0.0407819 0.00463911 0
-0.0179949 0.0522395 0
-0.0547696 -0.0142393 0
-0.0407819 0.00463911 0
-0.0233468 -0.0104233 0
-0.0375395 0.0011298 0
-0.0407819 0.00463911 0
-0.0179949 0.0522395 0
-0.0375395 0.0011298 0
-0.0195426 0.00817771 0
-0.0233468 -0.0104233 0
-0.0375395 0.0011298 0
-0.0206132 -0.00118853 0
-0.0080224 -0.00626535 0
-0.0375395 0.0011298 0
-0.0195426 0.00817771 0
-0.0080224 -0.00626535 0
-0.00998378 -0.00303738 0
0 0 0
0 0 0
-0.0455805 -0.00367442 0
-0.0377893 -0.004658 0
0 0 0
0 0 0
-0.0377893 -0.004658 0
-0.0254935 -0.00938533 0
-0.0455805 -0.00367442 0
-0.0377893 -0.004658 0
0.0339842 -0.00186148 0
0.0123452 0.010114 0
-0.0377893 -0.004658 0
-0.0254935 -0.00938533 0
0.0123452 0.010114 0
-0.0179947 -0.00266075 0
0.0339842 -0.00186148 0
0.0123452 0.010114 0
0.0103159 0.0449121 0
-0.0253965 0.0301872 0
0.0123452 0.010114 0
-0.0179947 -0.00266075 0
-0.0253965 0.0301872 0
-0.0291671 0.0168115 0
0.0103159 0.0449121 0
-0.0253965 0.0301872 0
-0.0179949 0.0522395 0
0.0112451 0.0301132 0
-0.0253965 0.0301872 0
-0.0291671 0.0168115 0
0.0112451 0.0301132 0
0.0127408 0.0190415 0
-0.0179949 0.0522395 0
0.0112451 0.0301132 0
-0.0195426 0.00817771 0
0.000187779 0.0171973 0
0.0112451 0.0301132 0
0.0127408 0.0190415 0
0.000187779 0.0171973 0
0.0223994 0.00467328 0
-0.0195426 0.00817771 0
0.000187779 0.0171973 0
-0.00998378 -0.00303738 0
-0.00314429 -0.00268989 0
0.000187779 0.0171973 0
0.0223994 0.00467328 0
-0.00314429 -0.00268989 0
0.000684305 -0.00606236 0
0 0 0
0 0 0
-0.0254935 -0.00938533 0
-0.0103015 -0.00805299 0
0 0 0
0 0 0
-0.0103015 -0.00805299 0
0.00214639 -0.0062394 0
-0.0254935 -0.00938533 0
-0.0103015 -0.00805299 0
-0.0179947 -0.00266075 0
-0.0260823 -0.0222876 0
-0.0103015 -0.00805299 0
0.00214639 -0.0062394 0
-0.0260823 -0.0222876 0
-0.013036 -0.021207 0
-0.0179947 -0.00266075 0
-0.0260823 -0.0222876 0
-0.0291671 0.0168115 0
-0.0346709 -0.0257957 0
-0.0260823 -0.0222876 0
-0.013036 -0.021207 0
-0.0346709 -0.0257957 0
-0.0303907 -0.0383811 0
-0.0291671 0.0168115 0
-0.0346709 -0.0257957 0
0.0127408 0.0190415 0
0.00146412 -0.00880502 0
-0.0346709 -0.0257957 0
-0.0303907 -0.0383811 0
0.00146412 -0.00880502 0
-0.0179217 -0.0385251 0
0.0127408 0.0190415 0
0.00146412 -0.00880502 0
0.0223994 0.00467328 0
0.0289003 0.0117323 0
0.00146412 -0.00880502 0
-0.0179217 -0.0385251 0
0.0289003 0.0117323 0
0.0167366 -0.0220517 0
0.0223994 0.00467328 0
0.0289003 0.0117323 0
0.000684305 -0.00606236 0
0.00857471 0.00558036 0
0.0289003 0.0117323 0
0.0167366 -0.0220517 0
0.00857471 0.00558036 0
-0.00420773 0.0129568 0
0 0 0
0 0 0
0.00214639 -0.0062394 0
0.00385879 0.00444447 0
0 0 0
0 0 0
0.00385879 0.00444447 0
0 0 0
0.00214639 -0.0062394 0
0.00385879 0.00444447 0
-0.013036 -0.021207 0
-0.0026365 0.00605735 0
0.00385879 0.00444447 0
0 0 0
-0.0026365 0.00605735 0
0 0 0
-0.013036 -0.021207 0
-0.0026365 0.00605735 0
-0.0303907 -0.0383811 0
-0.0115846 -0.0112687 0
-0.0026365 0.00605735 0
0 0 0
-0.0115846 -0.0112687 0
0 0 0
-0.0303907 -0.0383811 0
-0.0115846 -0.0112687 0
-0.0179217 -0.0385251 0
-0.0121931 -0.0403065 0
-0.0115846 -0.0112687 0
0 0 0
-0.0121931 -0.0403065 0
0 0 0
-0.0179217 -0.0385251 0
-0.0121931 -0.0403065 0
0.0167366 -0.0220517 0
0.00504795 -0.0490766 0
-0.0121931 -0.0403065 0
0 0 0
0.00504795 -0.0490766 0
0 0 0
0.0167366 -0.0220517 0
0.00504795 -0.0490766 0
-0.00420773 0.0129568 0
-0.0135261 -0.0600492 0
0.00504795 -0.0490766 0
0 0 0
-0.0135261 -0.0600492 0
0 0 0
0.107129 0.00550053 0
0.126594 0.00525372 0
0.108306 0.00418221 0
0.125668 0.00449842 0
0.126594 0.00525372 0
0.213488 0.00218809 0
0.125668 0.00449842 0
0.2093 0.0015337 0
0.108306 0.00418221 0
0.125668 0.00449842 0
0.10898 0.00288265 0
0.125244 0.00267119 0
0.125668 0.00449842 0
0.2093 0.0015337 0
0.125244 0.00267119 0
0.205525 0.000601361 0
0.297092 9.95182e-06 0
-0.0066054 0.00413535 0
0.287371 0.000262458 0
0.00977568 0.00383813 0
-0.0066054 0.00413535 0
0.406889 1.28275e-09 0
0.00977568 0.00383813 0
0.383646 1.15659e-09 0
0.287371 0.000262458 0
0.00977568 0.00383813 0
0.278376 0.00081807 0
0.0243766 0.00354801 0
0.00977568 0.00383813 0
0.383646 1.15659e-09 0
0.0243766 0.00354801 0
0.36266 9.79873e-10 0
0.278376 0.00081807 0
0.0243766 0.00354801 0
0.26974 0.00132523 0
0.0374299 0.0033595 0
0.0243766 0.00354801 0
0.36266 9.79873e-10 0
0.0374299 0.0033595 0
0.343576 6.71999e-10 0
0.26974 0.00132523 0
0.0374299 0.0033595 0
0.26172 0.00180149 0
0.0489191 0.00330662 0
0.0374299 0.0033595 0
0.343576 6.71999e-10 0
0.0489191 0.00330662 0
0.326232 4.00339e-10 0
0.26172 0.00180149 0
0.0489191 0.00330662 0
0.254253 0.00220392 0
0.058932 0.00307616 0
0.0489191 0.00330662 0
0.326232 4.00339e-10 0
0.058932 0.00307616 0
0.310583 5.08425e-11 0
0.254253 0.00220392 0
0.058932 0.00307616 0
0.247261 0.0024959 0
0.0676036 0.00298511 0
0.058932 0.00307616 0
0.310583 5.08425e-11 0
0.0676036 0.00298511 0
0.296569 -1.78156e-10 0
0.247261 0.0024959 0
0.0676036 0.00298511 0
0.240726 0.00272085 0
0.0751044 0.00278061 0
0.0676036 0.00298511 0
0.296569 -1.78156e-10 0
0.0751044 0.00278061 0
0.283985 -5.48862e-10 0
0.240726 0.00272085 0
0.0751044 0.00278061 0
0.234588 0.00286122 0
0.0816512 0.00280136 0
0.0751044 0.00278061 0
0.283985 -5.48862e-10 0
0.0816512 0.00280136 0
0.272559 -7.58686e-10 0
0.234588 0.00286122 0
0.0816512 0.00280136 0
0.228802 0.00292281 0
0.0873417 0.00249441 0
0.0816512 0.00280136 0
0.272559 -7.58686e-10 0
0.0873417 0.00249441 0