# vtk DataFile Version 3.0
#This file was generated by the deal.II library on 2026/3/26 at 11:21:33
ASCII
DATASET UNSTRUCTURED_GRID

POINTS 3648 double
0 0 0
0.214286 0 0
0 0.25 0
0.214286 0.25 0
0 0.25 0
0.214286 0.25 0
0 0.5 0
0.214286 0.5 0
0.214286 0 0
0.428571 0 0
0.214286 0.25 0
0.428571 0.25 0
0.214286 0.25 0
0.428571 0.25 0
0.214286 0.5 0
0.428571 0.5 0
0.428571 0 0
0.642857 0 0
0.428571 0.25 0
0.642857 0.25 0
0.428571 0.25 0
0.642857 0.25 0
0.428571 0.5 0
0.642857 0.5 0
0.428571 0.5 0
0.642857 0.5 0
0.428571 0.75 0
0.642857 0.75 0
0.642857 0 0
0.857143 0 0
0.642857 0.25 0
0.857143 0.25 0
0.642857 0.25 0
0.857143 0.25 0
0.642857 0.5 0
0.857143 0.5 0
0.642857 0.5 0
0.857143 0.5 0
0.642857 0.75 0
0.857143 0.75 0
0.857143 0 0
1.07143 0 0
0.857143 0.25 0
1.07143 0.25 0
0.857143 0.25 0
1.07143 0.25 0
0.857143 0.5 0
1.07143 0.5 0
0.857143 0.5 0
1.07143 0.5 0
0.857143 0.75 0
1.07143 0.75 0
1.07143 0 0
1.28571 0 0
1.07143 0.25 0
1.28571 0.25 0
1.07143 0.25 0
1.28571 0.25 0
1.07143 0.5 0
1.28571 0.5 0
1.07143 0.5 0
1.28571 0.5 0
1.07143 0.75 0
1.28571 0.75 0
1.28571 0 0
1.5 0 0
1.28571 0.25 0
1.5 0.25 0
1.28571 0.25 0
1.5 0.25 0
1.28571 0.5 0
1.5 0.5 0
1.5 0 0
1.71429 0 0
1.5 0.25 0
1.71429 0.25 0
1.5 0.25 0
1.71429 0.25 0
1.5 0.5 0
1.71429 0.5 0
1.71429 0 0
1.92857 0 0
1.71429 0.25 0
1.92857 0.25 0
1.71429 0.25 0
1.92857 0.25 0
1.71429 0.5 0
1.92857 0.5 0
1.92857 0 0
2.14286 0 0
1.92857 0.25 0
2.14286 0.25 0
1.92857 0.25 0
2.14286 0.25 0
1.92857 0.5 0
2.14286 0.5 0
0 3 0
0 2.75 0
0.214286 3 0
0.214286 2.75 0
0.214286 3 0
0.214286 2.75 0
0.428571 3 0
0.428571 2.75 0
0.428571 3 0
0.428571 2.75 0
0.642857 3 0
0.642857 2.75 0
0.642857 3 0
0.642857 2.75 0
0.857143 3 0
0.857143 2.75 0
0.857143 3 0
0.857143 2.75 0
1.07143 3 0
1.07143 2.75 0
1.07143 3 0
1.07143 2.75 0
1.28571 3 0
1.28571 2.75 0
1.28571 3 0
1.28571 2.75 0
1.5 3 0
1.5 2.75 0
1.5 3 0
1.5 2.75 0
1.71429 3 0
1.71429 2.75 0
1.71429 3 0
1.71429 2.75 0
1.92857 3 0
1.92857 2.75 0
1.92857 3 0
1.92857 2.75 0
2.14286 3 0
2.14286 2.75 0
0 2.75 0
0 2.5 0
0.214286 2.75 0
0.214286 2.5 0
0.214286 2.75 0
0.214286 2.5 0
0.428571 2.75 0
0.428571 2.5 0
0.428571 2.75 0
0.428571 2.5 0
0.642857 2.75 0
0.642857 2.5 0
0.642857 2.75 0
0.642857 2.5 0
0.857143 2.75 0
0.857143 2.5 0
0.857143 2.75 0
0.857143 2.5 0
1.07143 2.75 0
1.07143 2.5 0
1.07143 2.75 0
1.07143 2.5 0
1.28571 2.75 0
1.28571 2.5 0
1.28571 2.75 0
1.28571 2.5 0
1.5 2.75 0
1.5 2.5 0
1.5 2.75 0
1.5 2.5 0
1.71429 2.75 0
1.71429 2.5 0
1.71429 2.75 0
1.71429 2.5 0
1.92857 2.75 0
1.92857 2.5 0
1.92857 2.75 0
1.92857 2.5 0
2.14286 2.75 0
2.14286 2.5 0
0.428571 2.5 0
0.428571 2.25 0
0.642857 2.5 0
0.642857 2.25 0
0.642857 2.5 0
0.642857 2.25 0
0.857143 2.5 0
0.857143 2.25 0
0.857143 2.5 0
0.857143 2.25 0
1.07143 2.5 0
1.07143 2.25 0
1.07143 2.5 0
1.07143 2.25 0
1.28571 2.5 0
1.28571 2.25 0
0.214286 0.75 0
0.321429 0.75 0
0.214286 0.875 0
0.321429 0.875 0
0.321429 0.75 0
0.428571 0.75 0
0.321429 0.875 0
0.428571 0.875 0
0.214286 0.875 0
0.321429 0.875 0
0.214286 1 0
0.321429 1 0
0.321429 0.875 0
0.428571 0.875 0
0.321429 1 0
0.428571 1 0
0.428571 0.75 0
0.535714 0.75 0
0.428571 0.875 0
0.535714 0.875 0
0.535714 0.75 0
0.642857 0.75 0
0.535714 0.875 0
0.642857 0.875 0
0.428571 0.875 0
0.535714 0.875 0
0.428571 1 0
0.535714 1 0
0.535714 0.875 0
0.642857 0.875 0
0.535714 1 0
0.642857 1 0
0.642857 0.75 0
0.75 0.75 0
0.642857 0.875 0
0.75 0.875 0
0.75 0.75 0
0.857143 0.75 0
0.75 0.875 0
0.857143 0.875 0
0.642857 0.875 0
0.75 0.875 0
0.642857 1 0
0.75 1 0
0.75 0.875 0
0.857143 0.875 0
0.75 1 0
0.857143 1 0
0.857143 0.75 0
0.964286 0.75 0
0.857143 0.875 0
0.964286 0.875 0
0.964286 0.75 0
1.07143 0.75 0
0.964286 0.875 0
1.07143 0.875 0
0.857143 0.875 0
0.964286 0.875 0
0.857143 1 0
0.964286 1 0
0.964286 0.875 0
1.07143 0.875 0
0.964286 1 0
1.07143 1 0
1.07143 0.75 0
1.17857 0.75 0
1.07143 0.875 0
1.17857 0.875 0
1.17857 0.75 0
1.28571 0.75 0
1.17857 0.875 0
1.28571 0.875 0
1.07143 0.875 0
1.17857 0.875 0
1.07143 1 0
1.17857 1 0
1.17857 0.875 0
1.28571 0.875 0
1.17857 1 0
1.28571 1 0
0.214286 2 0
0.214286 1.875 0
0.321429 2 0
0.321429 1.875 0
0.214286 1.875 0
0.214286 1.75 0
0.321429 1.875 0
0.321429 1.75 0
0.321429 2 0
0.321429 1.875 0
0.428571 2 0
0.428571 1.875 0
0.321429 1.875 0
0.321429 1.75 0
0.428571 1.875 0
0.428571 1.75 0
0.428571 2 0
0.428571 1.875 0
0.535714 2 0
0.535714 1.875 0
0.428571 1.875 0
0.428571 1.75 0
0.535714 1.875 0
0.535714 1.75 0
0.535714 2 0
0.535714 1.875 0
0.642857 2 0
0.642857 1.875 0
0.535714 1.875 0
0.535714 1.75 0
0.642857 1.875 0
0.642857 1.75 0
0.642857 2 0
0.642857 1.875 0
0.75 2 0
0.75 1.875 0
0.642857 1.875 0
0.642857 1.75 0
0.75 1.875 0
0.75 1.75 0
0.75 2 0
0.75 1.875 0
0.857143 2 0
0.857143 1.875 0
0.75 1.875 0
0.75 1.75 0
0.857143 1.875 0
0.857143 1.75 0
0.857143 2 0
0.857143 1.875 0
0.964286 2 0
0.964286 1.875 0
0.857143 1.875 0
0.857143 1.75 0
0.964286 1.875 0
0.964286 1.75 0
0.964286 2 0
0.964286 1.875 0
1.07143 2 0
1.07143 1.875 0
0.964286 1.875 0
0.964286 1.75 0
1.07143 1.875 0
1.07143 1.75 0
1.07143 2 0
1.07143 1.875 0
1.17857 2 0
1.17857 1.875 0
1.07143 1.875 0
1.07143 1.75 0
1.17857 1.875 0
1.17857 1.75 0
1.17857 2 0
1.17857 1.875 0
1.28571 2 0
1.28571 1.875 0
1.17857 1.875 0
1.17857 1.75 0
1.28571 1.875 0
1.28571 1.75 0
0.214286 1.25 0
0.214286 1.125 0
0.321429 1.25 0
0.321429 1.125 0
0.214286 1.125 0
0.214286 1 0
0.321429 1.125 0
0.321429 1 0
0.321429 1.25 0
0.321429 1.125 0
0.428571 1.25 0
0.428571 1.125 0
0.321429 1.125 0
0.321429 1 0
0.428571 1.125 0
0.428571 1 0
0.428571 1.25 0
0.428571 1.125 0
0.535714 1.25 0
0.535714 1.125 0
0.428571 1.125 0
0.428571 1 0
0.535714 1.125 0
0.535714 1 0
0.535714 1.25 0
0.535714 1.125 0
0.642857 1.25 0
0.642857 1.125 0
0.535714 1.125 0
0.535714 1 0
0.642857 1.125 0
0.642857 1 0
0.642857 1.25 0
0.642857 1.125 0
0.75 1.25 0
0.75 1.125 0
0.642857 1.125 0
0.642857 1 0
0.75 1.125 0
0.75 1 0
0.75 1.25 0
0.75 1.125 0
0.857143 1.25 0
0.857143 1.125 0
0.75 1.125 0
0.75 1 0
0.857143 1.125 0
0.857143 1 0
0.857143 1.25 0
0.857143 1.125 0
0.964286 1.25 0
0.964286 1.125 0
0.857143 1.125 0
0.857143 1 0
0.964286 1.125 0
0.964286 1 0
0.964286 1.25 0
0.964286 1.125 0
1.07143 1.25 0
1.07143 1.125 0
0.964286 1.125 0
0.964286 1 0
1.07143 1.125 0
1.07143 1 0
1.07143 1.25 0
1.07143 1.125 0
1.17857 1.25 0
1.17857 1.125 0
1.07143 1.125 0
1.07143 1 0
1.17857 1.125 0
1.17857 1 0
1.17857 1.25 0
1.17857 1.125 0
1.28571 1.25 0
1.28571 1.125 0
1.17857 1.125 0
1.17857 1 0
1.28571 1.125 0
1.28571 1 0
0.214286 2.25 0
0.214286 2.125 0
0.321429 2.25 0
0.321429 2.125 0
0.214286 2.125 0
0.214286 2 0
0.321429 2.125 0
0.321429 2 0
0.321429 2.25 0
0.321429 2.125 0
0.428571 2.25 0
0.428571 2.125 0
0.321429 2.125 0
0.321429 2 0
0.428571 2.125 0
0.428571 2 0
0.428571 2.25 0
0.428571 2.125 0
0.535714 2.25 0
0.535714 2.125 0
0.428571 2.125 0
0.428571 2 0
0.535714 2.125 0
0.535714 2 0
0.535714 2.25 0
0.535714 2.125 0
0.642857 2.25 0
0.642857 2.125 0
0.535714 2.125 0
0.535714 2 0
0.642857 2.125 0
0.642857 2 0
0.642857 2.25 0
0.642857 2.125 0
0.75 2.25 0
0.75 2.125 0
0.642857 2.125 0
0.642857 2 0
0.75 2.125 0
0.75 2 0
0.75 2.25 0
0.75 2.125 0
0.857143 2.25 0
0.857143 2.125 0
0.75 2.125 0
0.75 2 0
0.857143 2.125 0
0.857143 2 0
0.857143 2.25 0
0.857143 2.125 0
0.964286 2.25 0
0.964286 2.125 0
0.857143 2.125 0
0.857143 2 0
0.964286 2.125 0
0.964286 2 0
0.964286 2.25 0
0.964286 2.125 0
1.07143 2.25 0
1.07143 2.125 0
0.964286 2.125 0
0.964286 2 0
1.07143 2.125 0
1.07143 2 0
1.07143 2.25 0
1.07143 2.125 0
1.17857 2.25 0
1.17857 2.125 0
1.07143 2.125 0
1.07143 2 0
1.17857 2.125 0
1.17857 2 0
1.17857 2.25 0
1.17857 2.125 0
1.28571 2.25 0
1.28571 2.125 0
1.17857 2.125 0
1.17857 2 0
1.28571 2.125 0
1.28571 2 0
0 0.5 0
0.107143 0.5 0
0 0.625 0
0.107143 0.625 0
0.107143 0.5 0
0.214286 0.5 0
0.107143 0.625 0
0.214286 0.625 0
0 0.625 0
0.107143 0.625 0
0 0.75 0
0.107143 0.75 0
0.107143 0.625 0
0.214286 0.625 0
0.107143 0.75 0
0.214286 0.75 0
0.214286 0.5 0
0.321429 0.5 0
0.214286 0.625 0
0.321429 0.625 0
0.321429 0.5 0
0.428571 0.5 0
0.321429 0.625 0
0.428571 0.625 0
0.214286 0.625 0
0.321429 0.625 0
0.214286 0.75 0
0.321429 0.75 0
0.321429 0.625 0
0.428571 0.625 0
0.321429 0.75 0
0.428571 0.75 0
1.28571 0.5 0
1.39286 0.5 0
1.28571 0.625 0
1.39286 0.625 0
1.39286 0.5 0
1.5 0.5 0
1.39286 0.625 0
1.5 0.625 0
1.28571 0.625 0
1.39286 0.625 0
1.28571 0.75 0
1.39286 0.75 0
1.39286 0.625 0
1.5 0.625 0
1.39286 0.75 0
1.5 0.75 0
1.28571 0.75 0
1.39286 0.75 0
1.28571 0.875 0
1.39286 0.875 0
1.39286 0.75 0
1.5 0.75 0
1.39286 0.875 0
1.5 0.875 0
1.28571 0.875 0
1.39286 0.875 0
1.28571 1 0
1.39286 1 0
1.39286 0.875 0
1.5 0.875 0
1.39286 1 0
1.5 1 0
1.5 0.5 0
1.60714 0.5 0
1.5 0.625 0
1.60714 0.625 0
1.60714 0.5 0
1.71429 0.5 0
1.60714 0.625 0
1.71429 0.625 0
1.5 0.625 0
1.60714 0.625 0
1.5 0.75 0
1.60714 0.75 0
1.60714 0.625 0
1.71429 0.625 0
1.60714 0.75 0
1.71429 0.75 0
1.71429 0.5 0
1.82143 0.5 0
1.71429 0.625 0
1.82143 0.625 0
1.82143 0.5 0
1.92857 0.5 0
1.82143 0.625 0
1.92857 0.625 0
1.71429 0.625 0
1.82143 0.625 0
1.71429 0.75 0
1.82143 0.75 0
1.82143 0.625 0
1.92857 0.625 0
1.82143 0.75 0
1.92857 0.75 0
1.92857 0.5 0
2.03571 0.5 0
1.92857 0.625 0
2.03571 0.625 0
2.03571 0.5 0
2.14286 0.5 0
2.03571 0.625 0
2.14286 0.625 0
1.92857 0.625 0
2.03571 0.625 0
1.92857 0.75 0
2.03571 0.75 0
2.03571 0.625 0
2.14286 0.625 0
2.03571 0.75 0
2.14286 0.75 0
2.14286 0 0
2.25 0 0
2.14286 0.125 0
2.25 0.125 0
2.25 0 0
2.35714 0 0
2.25 0.125 0
2.35714 0.125 0
2.14286 0.125 0
2.25 0.125 0
2.14286 0.25 0
2.25 0.25 0
2.25 0.125 0
2.35714 0.125 0
2.25 0.25 0
2.35714 0.25 0
2.14286 0.25 0
2.25 0.25 0
2.14286 0.375 0
2.25 0.375 0
2.25 0.25 0
2.35714 0.25 0
2.25 0.375 0
2.35714 0.375 0
2.14286 0.375 0
2.25 0.375 0
2.14286 0.5 0
2.25 0.5 0
2.25 0.375 0
2.35714 0.375 0
2.25 0.5 0
2.35714 0.5 0
2.14286 0.5 0
2.25 0.5 0
2.14286 0.625 0
2.25 0.625 0
2.25 0.5 0
2.35714 0.5 0
2.25 0.625 0
2.35714 0.625 0
2.14286 0.625 0
2.25 0.625 0
2.14286 0.75 0
2.25 0.75 0
2.25 0.625 0
2.35714 0.625 0
2.25 0.75 0
2.35714 0.75 0
2.35714 0 0
2.46429 0 0
[...]
POINT_DATA 3648
VECTORS velocity double
0 0 0
0 0 0
0 0 0
-0.0115817 0.013031 0
0 0 0
-0.0115817 0.013031 0
0 0 0
-0.00157763 0.0285273 0
0 0 0
0 0 0
-0.0115817 0.013031 0
-0.0343702 0.0133357 0
-0.0115817 0.013031 0
-0.0343702 0.0133357 0
-0.00157763 0.0285273 0
-0.00174661 0.0249759 0
0 0 0
0 0 0
-0.0343702 0.0133357 0
-0.0523533 0.00803719 0
-0.0343702 0.0133357 0
-0.0523533 0.00803719 0
-0.00174661 0.0249759 0
-0.00267897 0.0185052 0
-0.00174661 0.0249759 0
-0.00267897 0.0185052 0
0.0206339 0.0158374 0
0.0357793 0.0116006 0
0 0 0
0 0 0
-0.0523533 0.00803719 0
-0.0585652 -0.000469513 0
-0.0523533 0.00803719 0
-0.0585652 -0.000469513 0
-0.00267897 0.0185052 0
0.00328274 -0.0117319 0
-0.00267897 0.0185052 0
0.00328274 -0.0117319 0
0.0357793 0.0116006 0
0.0346822 -0.0103958 0
0 0 0
0 0 0
-0.0585652 -0.000469513 0
-0.0484178 -0.0110553 0
-0.0585652 -0.000469513 0
-0.0484178 -0.0110553 0
0.00328274 -0.0117319 0
0.00725334 -0.0161107 0
0.00328274 -0.0117319 0
0.00725334 -0.0161107 0
0.0346822 -0.0103958 0
0.0174665 -0.0010235 0
0 0 0
0 0 0
-0.0484178 -0.0110553 0
-0.00750195 -0.0389683 0
-0.0484178 -0.0110553 0
-0.00750195 -0.0389683 0
0.00725334 -0.0161107 0
-0.0201856 -0.0498079 0
0.00725334 -0.0161107 0
-0.0201856 -0.0498079 0
0.0174665 -0.0010235 0
0.00820224 -0.0226809 0
0 0 0
0 0 0
-0.00750195 -0.0389683 0
0.0728274 -0.0558922 0
-0.00750195 -0.0389683 0
0.0728274 -0.0558922 0
-0.0201856 -0.0498079 0
-0.0671946 -0.0821106 0
0 0 0
0 0 0
0.0728274 -0.0558922 0
0.0818485 0.0457206 0
0.0728274 -0.0558922 0
0.0818485 0.0457206 0
-0.0671946 -0.0821106 0
-0.0661195 0.0578562 0
0 0 0
0 0 0
0.0818485 0.0457206 0
0.0281018 0.0167654 0
0.0818485 0.0457206 0
0.0281018 0.0167654 0
-0.0661195 0.0578562 0
-0.0422456 0.0402904 0
0 0 0
0 0 0
0.0281018 0.0167654 0
-0.0103843 0.0269195 0
0.0281018 0.0167654 0
-0.0103843 0.0269195 0
-0.0422456 0.0402904 0
-0.0117859 0.0123254 0
0 0 0
0 0 0
0 0 0
-0.0116842 -0.0131442 0
0 0 0
-0.0116842 -0.0131442 0
0 0 0
-0.0346228 -0.0133936 0
0 0 0
-0.0346228 -0.0133936 0
0 0 0
-0.0525706 -0.00794795 0
0 0 0
-0.0525706 -0.00794795 0
0 0 0
-0.0586069 0.000576322 0
0 0 0
-0.0586069 0.000576322 0
0 0 0
-0.0483969 0.011025 0
0 0 0
-0.0483969 0.011025 0
0 0 0
-0.00741833 0.0390933 0
0 0 0
-0.00741833 0.0390933 0
0 0 0
0.0729746 0.0558456 0
0 0 0
0.0729746 0.0558456 0
0 0 0
0.0819438 -0.0457229 0
0 0 0
0.0819438 -0.0457229 0
0 0 0
0.028256 -0.0167073 0
0 0 0
0.028256 -0.0167073 0
0 0 0
-0.0102893 -0.0270373 0
0 0 0
0 0 0
-0.0116842 -0.0131442 0
-0.00159004 -0.0287788 0
-0.0116842 -0.0131442 0
-0.00159004 -0.0287788 0
-0.0346228 -0.0133936 0
-0.00172023 -0.025031 0
-0.0346228 -0.0133936 0
-0.00172023 -0.025031 0
-0.0525706 -0.00794795 0
-0.00260362 -0.0183179 0
-0.0525706 -0.00794795 0
-0.00260362 -0.0183179 0
-0.0586069 0.000576322 0
0.00340752 0.0120143 0
-0.0586069 0.000576322 0
0.00340752 0.0120143 0
-0.0483969 0.011025 0
0.00745559 0.0160636 0
-0.0483969 0.011025 0
0.00745559 0.0160636 0
-0.00741833 0.0390933 0
-0.0201613 0.0498124 0
-0.00741833 0.0390933 0
-0.0201613 0.0498124 0
0.0729746 0.0558456 0
-0.0672614 0.082126 0
0.0729746 0.0558456 0
-0.0672614 0.082126 0
0.0819438 -0.0457229 0
-0.0661161 -0.0578742 0
0.0819438 -0.0457229 0
-0.0661161 -0.0578742 0
0.028256 -0.0167073 0
-0.0422502 -0.040167 0
0.028256 -0.0167073 0
-0.0422502 -0.040167 0
-0.0102893 -0.0270373 0
-0.0117954 -0.0125732 0
-0.00172023 -0.025031 0
0.0207845 -0.0159057 0
-0.00260362 -0.0183179 0
0.0358586 -0.0114282 0
-0.00260362 -0.0183179 0
0.0358586 -0.0114282 0
0.00340752 0.0120143 0
0.0346265 0.0105791 0
0.00340752 0.0120143 0
0.0346265 0.0105791 0
0.00745559 0.0160636 0
0.017238 0.000944111 0
0.00745559 0.0160636 0
0.017238 0.000944111 0
-0.0201613 0.0498124 0
0.00806678 0.0226271 0
0.00662989 0.021093 0
0.0152979 0.0227897 0
0.0034423 0.0117657 0
0.0107198 0.0133679 0
0.0152979 0.0227897 0
0.0206339 0.0158374 0
0.0107198 0.0133679 0
0.0195943 0.00887028 0
0.0034423 0.0117657 0
0.0107198 0.0133679 0
0.0520012 -0.00336071 0
0.0740494 -0.00500891 0
0.0107198 0.0133679 0
0.0195943 0.00887028 0
0.0740494 -0.00500891 0
0.0929475 -0.00488452 0
0.0206339 0.0158374 0
0.0276757 0.0132278 0
0.0195943 0.00887028 0
0.0249362 0.00599648 0
0.0276757 0.0132278 0
0.0357793 0.0116006 0
0.0249362 0.00599648 0
0.0296567 0.0042086 0
0.0195943 0.00887028 0
0.0249362 0.00599648 0
0.0929475 -0.00488452 0
0.1093 -0.00575163 0
0.0249362 0.00599648 0
0.0296567 0.0042086 0
0.1093 -0.00575163 0
0.123219 -0.00633274 0
0.0357793 0.0116006 0
0.0397777 0.00147198 0
0.0296567 0.0042086 0
0.033033 0.000767774 0
0.0397777 0.00147198 0
0.0346822 -0.0103958 0
0.033033 0.000767774 0
0.0326769 -0.00267774 0
0.0296567 0.0042086 0
0.033033 0.000767774 0
0.123219 -0.00633274 0
0.135344 -0.00747223 0
0.033033 0.000767774 0
0.0326769 -0.00267774 0
0.135344 -0.00747223 0
0.146205 -0.00746514 0
0.0346822 -0.0103958 0
0.0256125 -0.00682511 0
0.0326769 -0.00267774 0
0.0316134 -0.00234599 0
0.0256125 -0.00682511 0
0.0174665 -0.0010235 0
0.0316134 -0.00234599 0
0.0354232 -0.000206767 0
0.0326769 -0.00267774 0
0.0316134 -0.00234599 0
0.146205 -0.00746514 0
0.15586 -0.00850162 0
0.0316134 -0.00234599 0
0.0354232 -0.000206767 0
0.15586 -0.00850162 0
0.163976 -0.00893253 0
0.0174665 -0.0010235 0
0.0112223 -0.0101683 0
0.0354232 -0.000206767 0
0.0384962 -0.00696201 0
0.0112223 -0.0101683 0
0.00820224 -0.0226809 0
0.0384962 -0.00696201 0
0.0308921 -0.0129557 0
0.0354232 -0.000206767 0
0.0384962 -0.00696201 0
0.163976 -0.00893253 0
0.17065 -0.0103503 0
0.0384962 -0.00696201 0
0.0308921 -0.0129557 0
0.17065 -0.0103503 0
0.17648 -0.00773153 0
0.0520016 0.0033659 0
0.240595 0.013246 0
0.0740722 0.0050056 0
0.233555 0.0122587 0
0.240595 0.013246 0
0.157907 0.0065768 0
0.233555 0.0122587 0
0.1538 0.00622224 0
0.0740722 0.0050056 0
0.233555 0.0122587 0
0.0929952 0.00488101 0
0.226953 0.0111975 0
0.233555 0.0122587 0
0.1538 0.00622224 0
0.226953 0.0111975 0
0.150151 0.0056603 0
0.0929952 0.00488101 0
0.226953 0.0111975 0
0.109374 0.005758 0
0.220679 0.0101989 0
0.226953 0.0111975 0
0.150151 0.0056603 0
0.220679 0.0101989 0
0.146956 0.00528318 0
0.109374 0.005758 0
0.220679 0.0101989 0
0.123323 0.00635149 0
0.214643 0.0099631 0
0.220679 0.0101989 0
0.146956 0.00528318 0
0.214643 0.0099631 0
0.144069 0.00513251 0
0.123323 0.00635149 0
0.214643 0.0099631 0
0.135472 0.0075111 0
0.208625 0.00951718 0
0.214643 0.0099631 0
0.144069 0.00513251 0
0.208625 0.00951718 0
0.141448 0.00494389 0
0.135472 0.0075111 0
0.208625 0.00951718 0
0.146353 0.00750271 0
0.20246 0.00945123 0
0.208625 0.00951718 0
0.141448 0.00494389 0
0.20246 0.00945123 0
0.139059 0.00476934 0
0.146353 0.00750271 0
0.20246 0.00945123 0
0.156031 0.0085372 0
0.196133 0.00899359 0
0.20246 0.00945123 0
0.139059 0.00476934 0
0.196133 0.00899359 0
0.136871 0.00454075 0
0.156031 0.0085372 0
0.196133 0.00899359 0
0.164162 0.00896518 0
0.189822 0.0094125 0
0.196133 0.00899359 0
0.136871 0.00454075 0
0.189822 0.0094125 0
0.134785 0.00475365 0
0.164162 0.00896518 0
0.189822 0.0094125 0
0.170844 0.0103881 0
0.183415 0.00875161 0
0.189822 0.0094125 0
0.134785 0.00475365 0
0.183415 0.00875161 0
0.132875 0.00408926 0
0.170844 0.0103881 0
0.183415 0.00875161 0
0.176677 0.00775528 0
0.176966 0.0075518 0
0.183415 0.00875161 0
0.132875 0.00408926 0
0.176966 0.0075518 0
0.131345 0.00333406 0
0.158128 -0.00658481 0
0.240524 -0.0132438 0
0.154014 -0.00622956 0
0.233505 -0.0122608 0
0.240524 -0.0132438 0
0.0520012 -0.00336071 0
0.233505 -0.0122608 0
0.0740494 -0.00500891 0
0.154014 -0.00622956 0
0.233505 -0.0122608 0
0.150357 -0.00566464 0
0.226922 -0.0111973 0
0.233505 -0.0122608 0
0.0740494 -0.00500891 0
0.226922 -0.0111973 0
0.0929475 -0.00488452 0
0.150357 -0.00566464 0
0.226922 -0.0111973 0
0.147155 -0.00528342 0
0.220667 -0.0101924 0
0.226922 -0.0111973 0
0.0929475 -0.00488452 0
0.220667 -0.0101924 0
0.1093 -0.00575163 0
0.147155 -0.00528342 0
0.220667 -0.0101924 0
0.144263 -0.00512857 0
0.214657 -0.00994536 0
0.220667 -0.0101924 0
0.1093 -0.00575163 0
0.214657 -0.00994536 0
0.123219 -0.00633274 0
0.144263 -0.00512857 0
0.214657 -0.00994536 0
0.141638 -0.00493688 0
0.208673 -0.00949384 0
0.214657 -0.00994536 0
0.123219 -0.00633274 0
0.208673 -0.00949384 0
0.135344 -0.00747223 0
0.141638 -0.00493688 0
0.208673 -0.00949384 0
0.139244 -0.00476174 0
0.202545 -0.00942512 0
0.208673 -0.00949384 0
0.135344 -0.00747223 0
0.202545 -0.00942512 0
0.146205 -0.00746514 0
0.139244 -0.00476174 0
0.202545 -0.00942512 0
0.13705 -0.00453385 0
0.196257 -0.00897277 0
0.202545 -0.00942512 0
0.146205 -0.00746514 0
0.196257 -0.00897277 0
0.15586 -0.00850162 0
0.13705 -0.00453385 0
0.196257 -0.00897277 0
0.134956 -0.00474545 0
0.189981 -0.00939242 0
0.196257 -0.00897277 0
0.15586 -0.00850162 0
0.189981 -0.00939242 0
0.163976 -0.00893253 0
0.134956 -0.00474545 0
0.189981 -0.00939242 0
0.133034 -0.00408725 0
0.183607 -0.00873855 0
0.189981 -0.00939242 0
0.163976 -0.00893253 0
0.183607 -0.00873855 0
0.17065 -0.0103503 0
0.133034 -0.00408725 0
0.183607 -0.00873855 0
0.131492 -0.00333379 0
0.17719 -0.0075424 0
0.183607 -0.00873855 0
0.17065 -0.0103503 0
0.17719 -0.0075424 0
0.17648 -0.00773153 0
0.00673741 -0.0212759 0
0.00348314 -0.0118545 0
0.0154483 -0.022934 0
0.0108685 -0.013431 0
0.00348314 -0.0118545 0
0.0520016 0.0033659 0
0.0108685 -0.013431 0
0.0740722 0.0050056 0
0.0154483 -0.022934 0
0.0108685 -0.013431 0
0.0207845 -0.0159057 0
0.0198172 -0.00893367 0
0.0108685 -0.013431 0
0.0740722 0.0050056 0
0.0198172 -0.00893367 0
0.0929952 0.00488101 0
0.0207845 -0.0159057 0
0.0198172 -0.00893367 0
0.0277762 -0.0131766 0
0.0251776 -0.00598716 0
0.0198172 -0.00893367 0
0.0929952 0.00488101 0
0.0251776 -0.00598716 0
0.109374 0.005758 0
0.0277762 -0.0131766 0
0.0251776 -0.00598716 0
0.0358586 -0.0114282 0
0.0298065 -0.00412518 0
0.0251776 -0.00598716 0
0.109374 0.005758 0
0.0298065 -0.00412518 0
0.123323 0.00635149 0
0.0358586 -0.0114282 0
0.0298065 -0.00412518 0
0.039821 -0.00129575 0
0.0330611 -0.000683626 0
0.0298065 -0.00412518 0
0.123323 0.00635149 0
0.0330611 -0.000683626 0
0.135472 0.0075111 0
0.039821 -0.00129575 0
0.0330611 -0.000683626 0
0.0346265 0.0105791 0
0.0326203 0.00274294 0
0.0330611 -0.000683626 0
0.135472 0.0075111 0
0.0326203 0.00274294 0
0.146353 0.00750271 0
0.0346265 0.0105791 0
0.0326203 0.00274294 0
0.0254481 0.00688866 0
0.0315215 0.00236725 0
0.0326203 0.00274294 0
0.146353 0.00750271 0
0.0315215 0.00236725 0
0.156031 0.0085372 0
0.0254481 0.00688866 0
0.0315215 0.00236725 0
0.017238 0.000944111 0
0.0353864 0.000168002 0
0.0315215 0.00236725 0
0.156031 0.0085372 0
0.0353864 0.000168002 0
0.164162 0.00896518 0
0.017238 0.000944111 0
0.0353864 0.000168002 0
0.0109956 0.0100826 0
0.0385535 0.00695219 0
0.0353864 0.000168002 0
0.164162 0.00896518 0
0.0385535 0.00695219 0
0.170844 0.0103881 0
0.0109956 0.0100826 0
0.0385535 0.00695219 0
0.00806678 0.0226271 0
0.0309887 0.0129784 0
0.0385535 0.00695219 0
0.170844 0.0103881 0
0.0309887 0.0129784 0
0.176677 0.00775528 0
0 0 0
-0.000356492 0.0146211 0
0 0 0
0.00119609 0.0138907 0
-0.000356492 0.0146211 0
-0.00157763 0.0285273 0
0.00119609 0.0138907 0
0.00275978 0.0290432 0
0 0 0
0.00119609 0.0138907 0
0 0 0
9.76288e-05 0.0126638 0
0.00119609 0.0138907 0
0.00275978 0.0290432 0
9.76288e-05 0.0126638 0
0.00662989 0.021093 0
-0.00157763 0.0285273 0
-0.00244612 0.026694 0
0.00275978 0.0290432 0
0.00397232 0.026034 0
-0.00244612 0.026694 0
-0.00174661 0.0249759 0
0.00397232 0.026034 0
0.00668012 0.0218738 0
0.00275978 0.0290432 0
0.00397232 0.026034 0
0.00662989 0.021093 0
0.0152979 0.0227897 0
0.00397232 0.026034 0
0.00668012 0.0218738 0
0.0152979 0.0227897 0
0.0206339 0.0158374 0
-0.0201856 -0.0498079 0
-0.0427431 -0.0676021 0
-0.00957453 -0.0302077 0
-0.0305147 -0.0365159 0
-0.0427431 -0.0676021 0
-0.0671946 -0.0821106 0
-0.0305147 -0.0365159 0
-0.0616582 -0.0486586 0
-0.00957453 -0.0302077 0
-0.0305147 -0.0365159 0
0.00820224 -0.0226809 0
-0.00402633 -0.0049345 0
-0.0305147 -0.0365159 0
-0.0616582 -0.0486586 0
-0.00402633 -0.0049345 0
-0.0379144 -0.00493278 0
0.00820224 -0.0226809 0
-0.00402633 -0.0049345 0
0.0308921 -0.0129557 0
0.0289349 0.00155812 0
-0.00402633 -0.0049345 0
-0.0379144 -0.00493278 0
0.0289349 0.00155812 0
0.0458528 0.00822432 0
0.0308921 -0.0129557 0
0.0289349 0.00155812 0
0.17648 -0.00773153 0
0.180932 -0.00709546 0
0.0289349 0.00155812 0
0.0458528 0.00822432 0
0.180932 -0.00709546 0
0.182626 -0.00471614 0
-0.0671946 -0.0821106 0
-0.0801102 -0.010215 0
-0.0616582 -0.0486586 0
-0.0759423 -0.0107755 0
-0.0801102 -0.010215 0
-0.0661195 0.0578562 0
-0.0759423 -0.0107755 0
-0.062542 0.0259749 0
-0.0616582 -0.0486586 0
-0.0759423 -0.0107755 0
-0.0379144 -0.00493278 0
-0.0429056 -0.0311209 0
-0.0759423 -0.0107755 0
-0.062542 0.0259749 0
-0.0429056 -0.0311209 0
-0.0389728 0.0253294 0
-0.0661195 0.0578562 0
-0.0458675 0.0484716 0
-0.062542 0.0259749 0
-0.0480711 0.0397377 0
-0.0458675 0.0484716 0
-0.0422456 0.0402904 0
-0.0480711 0.0397377 0
-0.0329131 0.0270497 0
-0.062542 0.0259749 0
-0.0480711 0.0397377 0
-0.0389728 0.0253294 0
-0.0424762 0.0279758 0
-0.0480711 0.0397377 0
-0.0329131 0.0270497 0
-0.0424762 0.0279758 0
-0.0227104 -0.0018342 0
-0.0422456 0.0402904 0
-0.0372724 0.0271699 0
-0.0329131 0.0270497 0
-0.00168306 -0.00195285 0
-0.0372724 0.0271699 0
-0.0117859 0.0123254 0
-0.00168306 -0.00195285 0
0.0135648 -0.00657486 0
-0.0329131 0.0270497 0
-0.00168306 -0.00195285 0
-0.0227104 -0.0018342 0
-0.0231972 -0.0087039 0
-0.00168306 -0.00195285 0
0.0135648 -0.00657486 0
-0.0231972 -0.0087039 0
-0.0295608 -0.00988043 0
0 0 0
0 0 0
-0.00305451 0.0066757 0
-0.0381834 0.0341522 0
0 0 0
0 0 0
-0.0381834 0.0341522 0
-0.0374789 -0.0338306 0
-0.00305451 0.0066757 0
-0.0381834 0.0341522 0
-0.0103843 0.0269195 0
0.0126563 0.0279087 0
-0.0381834 0.0341522 0
-0.0374789 -0.0338306 0
0.0126563 0.0279087 0
0.0145226 -0.0298278 0
-0.0103843 0.0269195 0
0.0126563 0.0279087 0
-0.011352 0.0368818 0
0.00719756 -0.0294863 0
0.0126563 0.0279087 0
0.0145226 -0.0298278 0
0.00719756 -0.0294863 0
-0.00346631 0.0371037 0
-0.011352 0.0368818 0
0.00719756 -0.0294863 0
-0.0117859 0.0123254 0
-0.00644277 -0.0309479 0
0.00719756 -0.0294863 0
-0.00346631 0.0371037 0
-0.00644277 -0.0309479 0
-0.020606 0.0666608 0
-0.0117859 0.0123254 0
-0.00644277 -0.0309479 0
0.0135648 -0.00657486 0
-0.00989765 0.00862042 0
-0.00644277 -0.0309479 0
-0.020606 0.0666608 0
-0.00989765 0.00862042 0
-0.0208391 0.0558326 0
0.0135648 -0.00657486 0
-0.00989765 0.00862042 0
-0.0295608 -0.00988043 0
-0.0112455 0.0178174 0
-0.00989765 0.00862042 0
-0.0208391 0.0558326 0
-0.0112455 0.0178174 0
0.00981088 0.0350305 0
0 0 0
0 0 0
-0.0374789 -0.0338306 0
-0.018232 0.0102731 0
0 0 0
0 0 0
-0.018232 0.0102731 0
-0.0230986 -0.00370499 0
-0.0374789 -0.0338306 0
-0.018232 0.0102731 0
0.0145226 -0.0298278 0
-0.0291889 0.0336358 0
-0.018232 0.0102731 0
-0.0230986 -0.00370499 0
-0.0291889 0.0336358 0
-0.0441368 -0.00226486 0
0.0145226 -0.0298278 0
-0.0291889 0.0336358 0
-0.00346631 0.0371037 0
-0.0283569 0.0466025 0
-0.0291889 0.0336358 0
-0.0441368 -0.00226486 0
-0.0283569 0.0466025 0
-0.0267912 0.00127281 0
-0.00346631 0.0371037 0
-0.0283569 0.0466025 0
-0.020606 0.0666608 0
-0.00358556 0.0261292 0
-0.0283569 0.0466025 0
-0.0267912 0.00127281 0
-0.00358556 0.0261292 0
0.0180261 -0.00516761 0
-0.020606 0.0666608 0
-0.00358556 0.0261292 0
-0.0208391 0.0558326 0
-0.0160835 0.0114213 0
-0.00358556 0.0261292 0
0.0180261 -0.00516761 0
-0.0160835 0.0114213 0
-0.0157966 -0.0158478 0
-0.0208391 0.0558326 0
-0.0160835 0.0114213 0
0.00981088 0.0350305 0
0.0203739 0.0139326 0
-0.0160835 0.0114213 0
-0.0157966 -0.0158478 0
0.0203739 0.0139326 0
0.00553811 -0.00148768 0
0 0 0
0 0 0
-0.0230986 -0.00370499 0
-0.0169231 -0.00406689 0
0 0 0
0 0 0
-0.0169231 -0.00406689 0
-0.00403634 -0.0106967 0
-0.0230986 -0.00370499 0
-0.0169231 -0.00406689 0
-0.0441368 -0.00226486 0
-0.0421531 -0.0157048 0
-0.0169231 -0.00406689 0
-0.00403634 -0.0106967 0
-0.0421531 -0.0157048 0
-0.0285464 -0.029446 0
-0.0441368 -0.00226486 0
-0.0421531 -0.0157048 0
-0.0267912 0.00127281 0
-0.030322 -0.0177859 0
-0.0421531 -0.0157048 0
-0.0285464 -0.029446 0
-0.030322 -0.0177859 0
-0.030995 -0.0423967 0
-0.0267912 0.00127281 0
-0.030322 -0.0177859 0
0.0180261 -0.00516761 0
0.010248 0.00138522 0
-0.030322 -0.0177859 0
-0.030995 -0.0423967 0
0.010248 0.00138522 0
-0.0107668 -0.0363471 0
0.0180261 -0.00516761 0
0.010248 0.00138522 0
-0.0157966 -0.0158478 0
-0.00401375 0.00736151 0
0.010248 0.00138522 0
-0.0107668 -0.0363471 0
-0.00401375 0.00736151 0
-0.000715687 -0.021699 0
-0.0157966 -0.0158478 0
-0.00401375 0.00736151 0
0.00553811 -0.00148768 0
0.00142201 -0.0166417 0
-0.00401375 0.00736151 0
-0.000715687 -0.021699 0
0.00142201 -0.0166417 0
0.00273496 -0.00329682 0
0 0 0
0 0 0
-0.00403634 -0.0106967 0
0.00265137 0.00291796 0
0 0 0
0 0 0
0.00265137 0.00291796 0
0 0 0
-0.00403634 -0.0106967 0
0.00265137 0.00291796 0
-0.0285464 -0.029446 0
-0.0107144 -0.00677805 0
0.00265137 0.00291796 0
0 0 0
-0.0107144 -0.00677805 0
0 0 0
-0.0285464 -0.029446 0
-0.0107144 -0.00677805 0
-0.030995 -0.0423967 0
-0.013294 -0.0353429 0
-0.0107144 -0.00677805 0
0 0 0
-0.013294 -0.0353429 0
0 0 0
-0.030995 -0.0423967 0
-0.013294 -0.0353429 0
-0.0107668 -0.0363471 0
-0.00998222 -0.0627899 0
-0.013294 -0.0353429 0
0 0 0
-0.00998222 -0.0627899 0
0 0 0
-0.0107668 -0.0363471 0
-0.00998222 -0.0627899 0
-0.000715687 -0.021699 0
-0.00207498 -0.0770088 0
-0.00998222 -0.0627899 0
0 0 0
-0.00207498 -0.0770088 0
0 0 0
-0.000715687 -0.021699 0
-0.00207498 -0.0770088 0
0.00273496 -0.00329682 0
-0.00531606 -0.0856425 0
-0.00207498 -0.0770088 0
0 0 0
-0.00531606 -0.0856425 0
0 0 0
0.176677 0.00775528 0
0.176966 0.0075518 0
0.18113 0.00712238 0
0.171556 0.00570444 0
0.176966 0.0075518 0
0.131345 0.00333406 0
0.171556 0.00570444 0
0.130179 0.00259802 0
0.18113 0.00712238 0
0.171556 0.00570444 0
0.182814 0.00472839 0
0.168312 0.00371767 0
0.171556 0.00570444 0
0.130179 0.00259802 0
0.168312 0.00371767 0
0.129053 0.00182943 0
0.165966 0.00679638 0
0.107517 0.00597002 0
0.161931 0.00664697 0
0.110087 0.00577646 0
0.107517 0.00597002 0
0.227794 3.15471e-06 0
0.110087 0.00577646 0
0.215219 2.98024e-06 0
0.161931 0.00664697 0
0.110087 0.00577646 0
0.157907 0.0065768 0
0.112222 0.00528004 0
0.110087 0.00577646 0
0.215219 2.98024e-06 0
0.112222 0.00528004 0
0.20374 3.00088e-06 0
0.157907 0.0065768 0
0.112222 0.00528004 0
0.1538 0.00622224 0
0.114181 0.00503066 0
0.112222 0.00528004 0
0.20374 3.00088e-06 0
0.114181 0.00503066 0
0.193167 3.04734e-06 0
0.1538 0.00622224 0
0.114181 0.00503066 0
0.150151 0.0056603 0
0.115881 0.00455278 0
0.114181 0.00503066 0
0.193167 3.04734e-06 0
0.115881 0.00455278 0
0.18349 3.59767e-06 0
0.150151 0.0056603 0
0.115881 0.00455278 0
0.146956 0.00528318 0
0.117298 0.0043205 0
0.115881 0.00455278 0
0.18349 3.59767e-06 0
0.117298 0.0043205 0
0.174724 4.26e-06 0
0.146956 0.00528318 0
0.117298 0.0043205 0
0.144069 0.00513251 0
0.118396 0.0039139 0
0.117298 0.0043205 0
0.174724 4.26e-06 0
0.118396 0.0039139 0
0.166868 4.80109e-06 0
0.144069 0.00513251 0
0.118396 0.0039139 0
0.141448 0.00494389 0
0.119136 0.00385827 0
0.118396 0.0039139 0
0.166868 4.80109e-06 0
0.119136 0.00385827 0
0.159829 5.37554e-06 0
0.141448 0.00494389 0
0.119136 0.00385827 0
0.139059 0.00476934 0
0.119528 0.00343798 0
0.119136 0.00385827 0
0.159829 5.37554e-06 0
0.119528 0.00343798 0
0.153471 5.21175e-06 0
0.139059 0.00476934 0
0.119528 0.00343798 0
0.136871 0.00454075 0
0.119573 0.00345528 0
0.119528 0.00343798 0
0.153471 5.21175e-06 0
0.119573 0.00345528 0
0.147776 6.36939e-06 0
0.136871 0.00454075 0
0.119573 0.00345528 0
0.134785 0.00475365 0
0.119337 0.00309165 0
0.119573 0.00345528 0
0.147776 6.36939e-06 0
0.119337 0.00309165 0
0.142755 6.03166e-06 0
0.134785 0.00475365 0
0.119337 0.00309165 0
0.132875 0.00408926 0
0.118972 0.00308974 0
0.119337 0.00309165 0
0.142755 6.03166e-06 0
0.118972 0.00308974 0
0.138255 4.15922e-06 0
0.132875 0.00408926 0
0.118972 0.00308974 0
0.131345 0.00333406 0
0.118651 0.00235487 0
0.118972 0.00308974 0
0.138255 4.15922e-06 0