# vtk DataFile Version 3.0
#This file was generated by the deal.II library on 2026/3/26 at 11:14:53
ASCII
DATASET UNSTRUCTURED_GRID

POINTS 3648 double
0 0 0
0.214286 0 0
0 0.25 0
0.214286 0.25 0
0 0.25 0
0.214286 0.25 0
0 0.5 0
0.214286 0.5 0
0.214286 0 0
0.428571 0 0
0.214286 0.25 0
0.428571 0.25 0
0.214286 0.25 0
0.428571 0.25 0
0.214286 0.5 0
0.428571 0.5 0
0.428571 0 0
0.642857 0 0
0.428571 0.25 0
0.642857 0.25 0
0.428571 0.25 0
0.642857 0.25 0
0.428571 0.5 0
0.642857 0.5 0
0.428571 0.5 0
0.642857 0.5 0
0.428571 0.75 0
0.642857 0.75 0
0.642857 0 0
0.857143 0 0
0.642857 0.25 0
0.857143 0.25 0
0.642857 0.25 0
0.857143 0.25 0
0.642857 0.5 0
0.857143 0.5 0
0.642857 0.5 0
0.857143 0.5 0
0.642857 0.75 0
0.857143 0.75 0
0.857143 0 0
1.07143 0 0
0.857143 0.25 0
1.07143 0.25 0
0.857143 0.25 0
1.07143 0.25 0
0.857143 0.5 0
1.07143 0.5 0
0.857143 0.5 0
1.07143 0.5 0
0.857143 0.75 0
1.07143 0.75 0
1.07143 0 0
1.28571 0 0
1.07143 0.25 0
1.28571 0.25 0
1.07143 0.25 0
1.28571 0.25 0
1.07143 0.5 0
1.28571 0.5 0
1.07143 0.5 0
1.28571 0.5 0
1.07143 0.75 0
1.28571 0.75 0
1.28571 0 0
1.5 0 0
1.28571 0.25 0
1.5 0.25 0
1.28571 0.25 0
1.5 0.25 0
1.28571 0.5 0
1.5 0.5 0
1.5 0 0
1.71429 0 0
1.5 0.25 0
1.71429 0.25 0
1.5 0.25 0
1.71429 0.25 0
1.5 0.5 0
1.71429 0.5 0
1.71429 0 0
1.92857 0 0
1.71429 0.25 0
1.92857 0.25 0
1.71429 0.25 0
1.92857 0.25 0
1.71429 0.5 0
1.92857 0.5 0
1.92857 0 0
2.14286 0 0
1.92857 0.25 0
2.14286 0.25 0
1.92857 0.25 0
2.14286 0.25 0
1.92857 0.5 0
2.14286 0.5 0
0 3 0
0 2.75 0
0.214286 3 0
0.214286 2.75 0
0.214286 3 0
0.214286 2.75 0
0.428571 3 0
0.428571 2.75 0
0.428571 3 0
0.428571 2.75 0
0.642857 3 0
0.642857 2.75 0
0.642857 3 0
0.642857 2.75 0
0.857143 3 0
0.857143 2.75 0
0.857143 3 0
0.857143 2.75 0
1.07143 3 0
1.07143 2.75 0
1.07143 3 0
1.07143 2.75 0
1.28571 3 0
1.28571 2.75 0
1.28571 3 0
1.28571 2.75 0
1.5 3 0
1.5 2.75 0
1.5 3 0
1.5 2.75 0
1.71429 3 0
1.71429 2.75 0
1.71429 3 0
1.71429 2.75 0
1.92857 3 0
1.92857 2.75 0
1.92857 3 0
1.92857 2.75 0
2.14286 3 0
2.14286 2.75 0
0 2.75 0
0 2.5 0
0.214286 2.75 0
0.214286 2.5 0
0.214286 2.75 0
0.214286 2.5 0
0.428571 2.75 0
0.428571 2.5 0
0.428571 2.75 0
0.428571 2.5 0
0.642857 2.75 0
0.642857 2.5 0
0.642857 2.75 0
0.642857 2.5 0
0.857143 2.75 0
0.857143 2.5 0
0.857143 2.75 0
0.857143 2.5 0
1.07143 2.75 0
1.07143 2.5 0
1.07143 2.75 0
1.07143 2.5 0
1.28571 2.75 0
1.28571 2.5 0
1.28571 2.75 0
1.28571 2.5 0
1.5 2.75 0
1.5 2.5 0
1.5 2.75 0
1.5 2.5 0
1.71429 2.75 0
1.71429 2.5 0
1.71429 2.75 0
1.71429 2.5 0
1.92857 2.75 0
1.92857 2.5 0
1.92857 2.75 0
1.92857 2.5 0
2.14286 2.75 0
2.14286 2.5 0
0.428571 2.5 0
0.428571 2.25 0
0.642857 2.5 0
0.642857 2.25 0
0.642857 2.5 0
0.642857 2.25 0
0.857143 2.5 0
0.857143 2.25 0
0.857143 2.5 0
0.857143 2.25 0
1.07143 2.5 0
1.07143 2.25 0
1.07143 2.5 0
1.07143 2.25 0
1.28571 2.5 0
1.28571 2.25 0
0.214286 0.75 0
0.321429 0.75 0
0.214286 0.875 0
0.321429 0.875 0
0.321429 0.75 0
0.428571 0.75 0
0.321429 0.875 0
0.428571 0.875 0
0.214286 0.875 0
0.321429 0.875 0
0.214286 1 0
0.321429 1 0
0.321429 0.875 0
0.428571 0.875 0
0.321429 1 0
0.428571 1 0
0.428571 0.75 0
0.535714 0.75 0
0.428571 0.875 0
0.535714 0.875 0
0.535714 0.75 0
0.642857 0.75 0
0.535714 0.875 0
0.642857 0.875 0
0.428571 0.875 0
0.535714 0.875 0
0.428571 1 0
0.535714 1 0
0.535714 0.875 0
0.642857 0.875 0
0.535714 1 0
0.642857 1 0
0.642857 0.75 0
0.75 0.75 0
0.642857 0.875 0
0.75 0.875 0
0.75 0.75 0
0.857143 0.75 0
0.75 0.875 0
0.857143 0.875 0
0.642857 0.875 0
0.75 0.875 0
0.642857 1 0
0.75 1 0
0.75 0.875 0
0.857143 0.875 0
0.75 1 0
0.857143 1 0
0.857143 0.75 0
0.964286 0.75 0
0.857143 0.875 0
0.964286 0.875 0
0.964286 0.75 0
1.07143 0.75 0
0.964286 0.875 0
1.07143 0.875 0
0.857143 0.875 0
0.964286 0.875 0
0.857143 1 0
0.964286 1 0
0.964286 0.875 0
1.07143 0.875 0
0.964286 1 0
1.07143 1 0
1.07143 0.75 0
1.17857 0.75 0
1.07143 0.875 0
1.17857 0.875 0
1.17857 0.75 0
1.28571 0.75 0
1.17857 0.875 0
1.28571 0.875 0
1.07143 0.875 0
1.17857 0.875 0
1.07143 1 0
1.17857 1 0
1.17857 0.875 0
1.28571 0.875 0
1.17857 1 0
1.28571 1 0
0.214286 2 0
0.214286 1.875 0
0.321429 2 0
0.321429 1.875 0
0.214286 1.875 0
0.214286 1.75 0
0.321429 1.875 0
0.321429 1.75 0
0.321429 2 0
0.321429 1.875 0
0.428571 2 0
0.428571 1.875 0
0.321429 1.875 0
0.321429 1.75 0
0.428571 1.875 0
0.428571 1.75 0
0.428571 2 0
0.428571 1.875 0
0.535714 2 0
0.535714 1.875 0
0.428571 1.875 0
0.428571 1.75 0
0.535714 1.875 0
0.535714 1.75 0
0.535714 2 0
0.535714 1.875 0
0.642857 2 0
0.642857 1.875 0
0.535714 1.875 0
0.535714 1.75 0
0.642857 1.875 0
0.642857 1.75 0
0.642857 2 0
0.642857 1.875 0
0.75 2 0
0.75 1.875 0
0.642857 1.875 0
0.642857 1.75 0
0.75 1.875 0
0.75 1.75 0
0.75 2 0
0.75 1.875 0
0.857143 2 0
0.857143 1.875 0
0.75 1.875 0
0.75 1.75 0
0.857143 1.875 0
0.857143 1.75 0
0.857143 2 0
0.857143 1.875 0
0.964286 2 0
0.964286 1.875 0
0.857143 1.875 0
0.857143 1.75 0
0.964286 1.875 0
0.964286 1.75 0
0.964286 2 0
0.964286 1.875 0
1.07143 2 0
1.07143 1.875 0
0.964286 1.875 0
0.964286 1.75 0
1.07143 1.875 0
1.07143 1.75 0
1.07143 2 0
1.07143 1.875 0
1.17857 2 0
1.17857 1.875 0
1.07143 1.875 0
1.07143 1.75 0
1.17857 1.875 0
1.17857 1.75 0
1.17857 2 0
1.17857 1.875 0
1.28571 2 0
1.28571 1.875 0
1.17857 1.875 0
1.17857 1.75 0
1.28571 1.875 0
1.28571 1.75 0
0.214286 1.25 0
0.214286 1.125 0
0.321429 1.25 0
0.321429 1.125 0
0.214286 1.125 0
0.214286 1 0
0.321429 1.125 0
0.321429 1 0
0.321429 1.25 0
0.321429 1.125 0
0.428571 1.25 0
0.428571 1.125 0
0.321429 1.125 0
0.321429 1 0
0.428571 1.125 0
0.428571 1 0
0.428571 1.25 0
0.428571 1.125 0
0.535714 1.25 0
0.535714 1.125 0
0.428571 1.125 0
0.428571 1 0
0.535714 1.125 0
0.535714 1 0
0.535714 1.25 0
0.535714 1.125 0
0.642857 1.25 0
0.642857 1.125 0
0.535714 1.125 0
0.535714 1 0
0.642857 1.125 0
0.642857 1 0
0.642857 1.25 0
0.642857 1.125 0
0.75 1.25 0
0.75 1.125 0
0.642857 1.125 0
0.642857 1 0
0.75 1.125 0
0.75 1 0
0.75 1.25 0
0.75 1.125 0
0.857143 1.25 0
0.857143 1.125 0
0.75 1.125 0
0.75 1 0
0.857143 1.125 0
0.857143 1 0
0.857143 1.25 0
0.857143 1.125 0
0.964286 1.25 0
0.964286 1.125 0
0.857143 1.125 0
0.857143 1 0
0.964286 1.125 0
0.964286 1 0
0.964286 1.25 0
0.964286 1.125 0
1.07143 1.25 0
1.07143 1.125 0
0.964286 1.125 0
0.964286 1 0
1.07143 1.125 0
1.07143 1 0
1.07143 1.25 0
1.07143 1.125 0
1.17857 1.25 0
1.17857 1.125 0
1.07143 1.125 0
1.07143 1 0
1.17857 1.125 0
1.17857 1 0
1.17857 1.25 0
1.17857 1.125 0
1.28571 1.25 0
1.28571 1.125 0
1.17857 1.125 0
1.17857 1 0
1.28571 1.125 0
1.28571 1 0
0.214286 2.25 0
0.214286 2.125 0
0.321429 2.25 0
0.321429 2.125 0
0.214286 2.125 0
0.214286 2 0
0.321429 2.125 0
0.321429 2 0
0.321429 2.25 0
0.321429 2.125 0
0.428571 2.25 0
0.428571 2.125 0
0.321429 2.125 0
0.321429 2 0
0.428571 2.125 0
0.428571 2 0
0.428571 2.25 0
0.428571 2.125 0
0.535714 2.25 0
0.535714 2.125 0
0.428571 2.125 0
0.428571 2 0
0.535714 2.125 0
0.535714 2 0
0.535714 2.25 0
0.535714 2.125 0
0.642857 2.25 0
0.642857 2.125 0
0.535714 2.125 0
0.535714 2 0
0.642857 2.125 0
0.642857 2 0
0.642857 2.25 0
0.642857 2.125 0
0.75 2.25 0
0.75 2.125 0
0.642857 2.125 0
0.642857 2 0
0.75 2.125 0
0.75 2 0
0.75 2.25 0
0.75 2.125 0
0.857143 2.25 0
0.857143 2.125 0
0.75 2.125 0
0.75 2 0
0.857143 2.125 0
0.857143 2 0
0.857143 2.25 0
0.857143 2.125 0
0.964286 2.25 0
0.964286 2.125 0
0.857143 2.125 0
0.857143 2 0
0.964286 2.125 0
0.964286 2 0
0.964286 2.25 0
0.964286 2.125 0
1.07143 2.25 0
1.07143 2.125 0
0.964286 2.125 0
0.964286 2 0
1.07143 2.125 0
1.07143 2 0
1.07143 2.25 0
1.07143 2.125 0
1.17857 2.25 0
1.17857 2.125 0
1.07143 2.125 0
1.07143 2 0
1.17857 2.125 0
1.17857 2 0
1.17857 2.25 0
1.17857 2.125 0
1.28571 2.25 0
1.28571 2.125 0
1.17857 2.125 0
1.17857 2 0
1.28571 2.125 0
1.28571 2 0
0 0.5 0
0.107143 0.5 0
0 0.625 0
0.107143 0.625 0
0.107143 0.5 0
0.214286 0.5 0
0.107143 0.625 0
0.214286 0.625 0
0 0.625 0
0.107143 0.625 0
0 0.75 0
0.107143 0.75 0
0.107143 0.625 0
0.214286 0.625 0
0.107143 0.75 0
0.214286 0.75 0
0.214286 0.5 0
0.321429 0.5 0
0.214286 0.625 0
0.321429 0.625 0
0.321429 0.5 0
0.428571 0.5 0
0.321429 0.625 0
0.428571 0.625 0
0.214286 0.625 0
0.321429 0.625 0
0.214286 0.75 0
0.321429 0.75 0
0.321429 0.625 0
0.428571 0.625 0
0.321429 0.75 0
0.428571 0.75 0
1.28571 0.5 0
1.39286 0.5 0
1.28571 0.625 0
1.39286 0.625 0
1.39286 0.5 0
1.5 0.5 0
1.39286 0.625 0
1.5 0.625 0
1.28571 0.625 0
1.39286 0.625 0
1.28571 0.75 0
1.39286 0.75 0
1.39286 0.625 0
1.5 0.625 0
1.39286 0.75 0
1.5 0.75 0
1.28571 0.75 0
1.39286 0.75 0
1.28571 0.875 0
1.39286 0.875 0
1.39286 0.75 0
1.5 0.75 0
1.39286 0.875 0
1.5 0.875 0
1.28571 0.875 0
1.39286 0.875 0
1.28571 1 0
1.39286 1 0
1.39286 0.875 0
1.5 0.875 0
1.39286 1 0
1.5 1 0
1.5 0.5 0
1.60714 0.5 0
1.5 0.625 0
1.60714 0.625 0
1.60714 0.5 0
1.71429 0.5 0
1.60714 0.625 0
1.71429 0.625 0
1.5 0.625 0
1.60714 0.625 0
1.5 0.75 0
1.60714 0.75 0
1.60714 0.625 0
1.71429 0.625 0
1.60714 0.75 0
1.71429 0.75 0
1.71429 0.5 0
1.82143 0.5 0
1.71429 0.625 0
1.82143 0.625 0
1.82143 0.5 0
1.92857 0.5 0
1.82143 0.625 0
1.92857 0.625 0
1.71429 0.625 0
1.82143 0.625 0
1.71429 0.75 0
1.82143 0.75 0
1.82143 0.625 0
1.92857 0.625 0
1.82143 0.75 0
1.92857 0.75 0
1.92857 0.5 0
2.03571 0.5 0
1.92857 0.625 0
2.03571 0.625 0
2.03571 0.5 0
2.14286 0.5 0
2.03571 0.625 0
2.14286 0.625 0
1.92857 0.625 0
2.03571 0.625 0
1.92857 0.75 0
2.03571 0.75 0
2.03571 0.625 0
2.14286 0.625 0
2.03571 0.75 0
2.14286 0.75 0
2.14286 0 0
2.25 0 0
2.14286 0.125 0
2.25 0.125 0
2.25 0 0
2.35714 0 0
2.25 0.125 0
2.35714 0.125 0
2.14286 0.125 0
2.25 0.125 0
2.14286 0.25 0
2.25 0.25 0
2.25 0.125 0
2.35714 0.125 0
2.25 0.25 0
2.35714 0.25 0
2.14286 0.25 0
2.25 0.25 0
2.14286 0.375 0
2.25 0.375 0
2.25 0.25 0
2.35714 0.25 0
2.25 0.375 0
2.35714 0.375 0
2.14286 0.375 0
2.25 0.375 0
2.14286 0.5 0
2.25 0.5 0
2.25 0.375 0
2.35714 0.375 0
2.25 0.5 0
2.35714 0.5 0
2.14286 0.5 0
2.25 0.5 0
2.14286 0.625 0
2.25 0.625 0
2.25 0.5 0
2.35714 0.5 0
2.25 0.625 0
2.35714 0.625 0
2.14286 0.625 0
2.25 0.625 0
2.14286 0.75 0
2.25 0.75 0
2.25 0.625 0
2.35714 0.625 0
2.25 0.75 0
2.35714 0.75 0
2.35714 0 0
2.46429 0 0
[...]
POINT_DATA 3648
VECTORS velocity double
0 0 0
0 0 0
0 0 0
-0.0113295 0.0127395 0
0 0 0
-0.0113295 0.0127395 0
0 0 0
-0.00132582 0.0276097 0
0 0 0
0 0 0
-0.0113295 0.0127395 0
-0.0332189 0.0125769 0
-0.0113295 0.0127395 0
-0.0332189 0.0125769 0
-0.00132582 0.0276097 0
-0.00134762 0.0235932 0
0 0 0
0 0 0
-0.0332189 0.0125769 0
-0.0502841 0.00763488 0
-0.0332189 0.0125769 0
-0.0502841 0.00763488 0
-0.00134762 0.0235932 0
-0.002101 0.0173911 0
-0.00134762 0.0235932 0
-0.002101 0.0173911 0
0.0199275 0.0149699 0
0.0341101 0.0108941 0
0 0 0
0 0 0
-0.0502841 0.00763488 0
-0.056454 -0.000196358 0
-0.0502841 0.00763488 0
-0.056454 -0.000196358 0
-0.002101 0.0173911 0
0.00396515 -0.0108076 0
-0.002101 0.0173911 0
0.00396515 -0.0108076 0
0.0341101 0.0108941 0
0.0327381 -0.00961236 0
0 0 0
0 0 0
-0.056454 -0.000196358 0
-0.0469147 -0.0107439 0
-0.056454 -0.000196358 0
-0.0469147 -0.0107439 0
0.00396515 -0.0108076 0
0.0069944 -0.0147816 0
0.00396515 -0.0108076 0
0.0069944 -0.0147816 0
0.0327381 -0.00961236 0
0.0172262 -0.000497405 0
0 0 0
0 0 0
-0.0469147 -0.0107439 0
-0.00701331 -0.0379725 0
-0.0469147 -0.0107439 0
-0.00701331 -0.0379725 0
0.0069944 -0.0147816 0
-0.0193822 -0.0498335 0
0.0069944 -0.0147816 0
-0.0193822 -0.0498335 0
0.0172262 -0.000497405 0
0.0081053 -0.0230721 0
0 0 0
0 0 0
-0.00701331 -0.0379725 0
0.0751523 -0.0591367 0
-0.00701331 -0.0379725 0
0.0751523 -0.0591367 0
-0.0193822 -0.0498335 0
-0.0688486 -0.0836994 0
0 0 0
0 0 0
0.0751523 -0.0591367 0
0.0856515 0.0475366 0
0.0751523 -0.0591367 0
0.0856515 0.0475366 0
-0.0688486 -0.0836994 0
-0.0690545 0.0582089 0
0 0 0
0 0 0
0.0856515 0.0475366 0
0.0298601 0.017245 0
0.0856515 0.0475366 0
0.0298601 0.017245 0
-0.0690545 0.0582089 0
-0.0431693 0.0420007 0
0 0 0
0 0 0
0.0298601 0.017245 0
-0.00869437 0.0265915 0
0.0298601 0.017245 0
-0.00869437 0.0265915 0
-0.0431693 0.0420007 0
-0.0131174 0.0114741 0
0 0 0
0 0 0
0 0 0
-0.0113868 -0.0127992 0
0 0 0
-0.0113868 -0.0127992 0
0 0 0
-0.0332146 -0.0124416 0
0 0 0
-0.0332146 -0.0124416 0
0 0 0
-0.0500268 -0.00746604 0
0 0 0
-0.0500268 -0.00746604 0
0 0 0
-0.0560561 0.000198863 0
0 0 0
-0.0560561 0.000198863 0
0 0 0
-0.0467403 0.0104991 0
0 0 0
-0.0467403 0.0104991 0
0 0 0
-0.00736143 0.0376031 0
0 0 0
-0.00736143 0.0376031 0
0 0 0
0.0751133 0.0599464 0
0 0 0
0.0751133 0.0599464 0
0 0 0
0.0860884 -0.0478047 0
0 0 0
0.0860884 -0.0478047 0
0 0 0
0.0303213 -0.0169332 0
0 0 0
0.0303213 -0.0169332 0
0 0 0
-0.00826742 -0.0269545 0
0 0 0
0 0 0
-0.0113868 -0.0127992 0
-0.00124676 -0.0276543 0
-0.0113868 -0.0127992 0
-0.00124676 -0.0276543 0
-0.0332146 -0.0124416 0
-0.00117829 -0.0233173 0
-0.0332146 -0.0124416 0
-0.00117829 -0.0233173 0
-0.0500268 -0.00746604 0
-0.00181369 -0.0169297 0
-0.0500268 -0.00746604 0
-0.00181369 -0.0169297 0
-0.0560561 0.000198863 0
0.00428036 0.0106901 0
-0.0560561 0.000198863 0
0.00428036 0.0106901 0
-0.0467403 0.0104991 0
0.00730849 0.014414 0
-0.0467403 0.0104991 0
0.00730849 0.014414 0
-0.00736143 0.0376031 0
-0.0187157 0.0493644 0
-0.00736143 0.0376031 0
-0.0187157 0.0493644 0
0.0751133 0.0599464 0
-0.0691487 0.0838286 0
0.0751133 0.0599464 0
-0.0691487 0.0838286 0
0.0860884 -0.0478047 0
-0.0695822 -0.0576791 0
0.0860884 -0.0478047 0
-0.0695822 -0.0576791 0
0.0303213 -0.0169332 0
-0.0433138 -0.0419172 0
0.0303213 -0.0169332 0
-0.0433138 -0.0419172 0
-0.00826742 -0.0269545 0
-0.0132383 -0.0116509 0
-0.00117829 -0.0233173 0
0.0199338 -0.0148261 0
-0.00181369 -0.0169297 0
0.0337813 -0.0105691 0
-0.00181369 -0.0169297 0
0.0337813 -0.0105691 0
0.00428036 0.0106901 0
0.0323031 0.00950366 0
0.00428036 0.0106901 0
0.0323031 0.00950366 0
0.00730849 0.014414 0
0.0169885 0.000321054 0
0.00730849 0.014414 0
0.0169885 0.000321054 0
-0.0187157 0.0493644 0
0.00777578 0.0226817 0
0.00616969 0.0202925 0
0.0146843 0.0219212 0
0.00324566 0.0114114 0
0.00996636 0.0128805 0
0.0146843 0.0219212 0
0.0199275 0.0149699 0
0.00996636 0.0128805 0
0.0182729 0.00838567 0
0.00324566 0.0114114 0
0.00996636 0.0128805 0
0.0519432 -0.00340285 0
0.0738966 -0.00505364 0
0.00996636 0.0128805 0
0.0182729 0.00838567 0
0.0738966 -0.00505364 0
0.0927047 -0.0050404 0
0.0199275 0.0149699 0
0.0265801 0.012506 0
0.0182729 0.00838567 0
0.02329 0.00572242 0
0.0265801 0.012506 0
0.0341101 0.0108941 0
0.02329 0.00572242 0
0.0278241 0.00394316 0
0.0182729 0.00838567 0
0.02329 0.00572242 0
0.0927047 -0.0050404 0
0.10897 -0.00586066 0
0.02329 0.00572242 0
0.0278241 0.00394316 0
0.10897 -0.00586066 0
0.122807 -0.00641955 0
0.0341101 0.0108941 0
0.0377097 0.00135723 0
0.0278241 0.00394316 0
0.0311042 0.000778714 0
0.0377097 0.00135723 0
0.0327381 -0.00961236 0
0.0311042 0.000778714 0
0.0309823 -0.0024787 0
0.0278241 0.00394316 0
0.0311042 0.000778714 0
0.122807 -0.00641955 0
0.134838 -0.00739879 0
0.0311042 0.000778714 0
0.0309823 -0.0024787 0
0.134838 -0.00739879 0
0.145563 -0.00742294 0
0.0327381 -0.00961236 0
0.0242792 -0.00595504 0
0.0309823 -0.0024787 0
0.0303486 -0.0021115 0
0.0242792 -0.00595504 0
0.0172262 -0.000497405 0
0.0303486 -0.0021115 0
0.0341669 -0.000333743 0
0.0309823 -0.0024787 0
0.0303486 -0.0021115 0
0.145563 -0.00742294 0
0.155022 -0.00833569 0
0.0303486 -0.0021115 0
0.0341669 -0.000333743 0
0.155022 -0.00833569 0
0.162936 -0.00869223 0
0.0172262 -0.000497405 0
0.0116995 -0.0103719 0
0.0341669 -0.000333743 0
0.0368198 -0.00690754 0
0.0116995 -0.0103719 0
0.0081053 -0.0230721 0
0.0368198 -0.00690754 0
0.0289623 -0.0127723 0
0.0341669 -0.000333743 0
0.0368198 -0.00690754 0
0.162936 -0.00869223 0
0.169407 -0.00989534 0
0.0368198 -0.00690754 0
0.0289623 -0.0127723 0
0.169407 -0.00989534 0
0.175023 -0.00737089 0
0.052194 0.00348157 0
0.238838 0.0135171 0
0.0743262 0.00516018 0
0.232009 0.0125839 0
0.238838 0.0135171 0
0.160401 0.00674439 0
0.232009 0.0125839 0
0.155863 0.00637543 0
0.0743262 0.00516018 0
0.232009 0.0125839 0
0.093281 0.00517312 0
0.225545 0.011526 0
0.232009 0.0125839 0
0.155863 0.00637543 0
0.225545 0.011526 0
0.151802 0.00581638 0
0.093281 0.00517312 0
0.225545 0.011526 0
0.109668 0.00600826 0
0.219357 0.0105326 0
0.225545 0.011526 0
0.151802 0.00581638 0
0.219357 0.0105326 0
0.148227 0.00540393 0
0.109668 0.00600826 0
0.219357 0.0105326 0
0.123606 0.00657524 0
0.213389 0.0101722 0
0.219357 0.0105326 0
0.148227 0.00540393 0
0.213389 0.0101722 0
0.145005 0.00520478 0
0.123606 0.00657524 0
0.213389 0.0101722 0
0.135715 0.00754959 0
0.207458 0.00966393 0
0.213389 0.0101722 0
0.145005 0.00520478 0
0.207458 0.00966393 0
0.142104 0.00496445 0
0.135715 0.00754959 0
0.207458 0.00966393 0
0.146492 0.00757379 0
0.201426 0.00948898 0
0.207458 0.00966393 0
0.142104 0.00496445 0
0.201426 0.00948898 0
0.139484 0.00477494 0
0.146492 0.00757379 0
0.201426 0.00948898 0
0.155981 0.00846652 0
0.195288 0.00898764 0
0.201426 0.00948898 0
0.139484 0.00477494 0
0.195288 0.00898764 0
0.137108 0.0044953 0
0.155981 0.00846652 0
0.195288 0.00898764 0
0.163907 0.00880418 0
0.189192 0.0092088 0
0.195288 0.00898764 0
0.137108 0.0044953 0
0.189192 0.0092088 0
0.134884 0.00461822 0
0.163907 0.00880418 0
0.189192 0.0092088 0
0.170373 0.00998612 0
0.183039 0.0085254 0
0.189192 0.0092088 0
0.134884 0.00461822 0
0.183039 0.0085254 0
0.132875 0.00394584 0
0.170373 0.00998612 0
0.183039 0.0085254 0
0.175949 0.00749007 0
0.176915 0.00725213 0
0.183039 0.0085254 0
0.132875 0.00394584 0
0.176915 0.00725213 0
0.131276 0.00319689 0
0.161632 -0.00670962 0
0.239173 -0.0133899 0
0.157145 -0.00633952 0
0.232454 -0.0124552 0
0.239173 -0.0133899 0
0.0519432 -0.00340285 0
0.232454 -0.0124552 0
0.0738966 -0.00505364 0
0.157145 -0.00633952 0
0.232454 -0.0124552 0
0.153126 -0.00577647 0
0.226109 -0.0113991 0
0.232454 -0.0124552 0
0.0738966 -0.00505364 0
0.226109 -0.0113991 0
0.0927047 -0.0050404 0
0.153126 -0.00577647 0
0.226109 -0.0113991 0
0.149581 -0.00536871 0
0.220047 -0.0104084 0
0.226109 -0.0113991 0
0.0927047 -0.0050404 0
0.220047 -0.0104084 0
0.10897 -0.00586066 0
0.149581 -0.00536871 0
0.220047 -0.0104084 0
0.14638 -0.00517206 0
0.214212 -0.01006 0
0.220047 -0.0104084 0
0.10897 -0.00586066 0
0.214212 -0.01006 0
0.122807 -0.00641955 0
0.14638 -0.00517206 0
0.214212 -0.01006 0
0.143486 -0.00494019 0
0.208416 -0.00956442 0
0.214212 -0.01006 0
0.122807 -0.00641955 0
0.208416 -0.00956442 0
0.134838 -0.00739879 0
0.143486 -0.00494019 0
0.208416 -0.00956442 0
0.140862 -0.00475187 0
0.202515 -0.00940564 0
0.208416 -0.00956442 0
0.134838 -0.00739879 0
0.202515 -0.00940564 0
0.145563 -0.00742294 0
0.140862 -0.00475187 0
0.202515 -0.00940564 0
0.13847 -0.0044913 0
0.196501 -0.00892791 0
0.202515 -0.00940564 0
0.145563 -0.00742294 0
0.196501 -0.00892791 0
0.155022 -0.00833569 0
0.13847 -0.0044913 0
0.196501 -0.00892791 0
0.136218 -0.00461833 0
0.190519 -0.00917213 0
0.196501 -0.00892791 0
0.155022 -0.00833569 0
0.190519 -0.00917213 0
0.162936 -0.00869223 0
0.136218 -0.00461833 0
0.190519 -0.00917213 0
0.134175 -0.00395777 0
0.184469 -0.00850256 0
0.190519 -0.00917213 0
0.162936 -0.00869223 0
0.184469 -0.00850256 0
0.169407 -0.00989534 0
0.134175 -0.00395777 0
0.184469 -0.00850256 0
0.13254 -0.00319617 0
0.178433 -0.00722794 0
0.184469 -0.00850256 0
0.169407 -0.00989534 0
0.178433 -0.00722794 0
0.175023 -0.00737089 0
0.00617368 -0.0202449 0
0.00307029 -0.0114017 0
0.0147183 -0.0219293 0
0.00974308 -0.0128667 0
0.00307029 -0.0114017 0
0.052194 0.00348157 0
0.00974308 -0.0128667 0
0.0743262 0.00516018 0
0.0147183 -0.0219293 0
0.00974308 -0.0128667 0
0.0199338 -0.0148261 0
0.0180278 -0.00832036 0
0.00974308 -0.0128667 0
0.0743262 0.00516018 0
0.0180278 -0.00832036 0
0.093281 0.00517312 0
0.0199338 -0.0148261 0
0.0180278 -0.00832036 0
0.0264458 -0.0122833 0
0.0230088 -0.00562659 0
0.0180278 -0.00832036 0
0.093281 0.00517312 0
0.0230088 -0.00562659 0
0.109668 0.00600826 0
0.0264458 -0.0122833 0
0.0230088 -0.00562659 0
0.0337813 -0.0105691 0
0.027477 -0.00379573 0
0.0230088 -0.00562659 0
0.109668 0.00600826 0
0.027477 -0.00379573 0
0.123606 0.00657524 0
0.0337813 -0.0105691 0
0.027477 -0.00379573 0
0.0372439 -0.00121895 0
0.0307069 -0.000675039 0
0.027477 -0.00379573 0
0.123606 0.00657524 0
0.0307069 -0.000675039 0
0.135715 0.00754959 0
0.0372439 -0.00121895 0
0.0307069 -0.000675039 0
0.0323031 0.00950366 0
0.0306439 0.00252365 0
0.0307069 -0.000675039 0
0.135715 0.00754959 0
0.0306439 0.00252365 0
0.146492 0.00757379 0
0.0323031 0.00950366 0
0.0306439 0.00252365 0
0.0239506 0.00578376 0
0.0301707 0.00211206 0
0.0306439 0.00252365 0
0.146492 0.00757379 0
0.0301707 0.00211206 0
0.155981 0.00846652 0
0.0239506 0.00578376 0
0.0301707 0.00211206 0
0.0169885 0.000321054 0
0.0341799 0.000332918 0
0.0301707 0.00211206 0
0.155981 0.00846652 0
0.0341799 0.000332918 0
0.163907 0.00880418 0
0.0169885 0.000321054 0
0.0341799 0.000332918 0
0.0114821 0.0101055 0
0.0370885 0.00681185 0
0.0341799 0.000332918 0
0.163907 0.00880418 0
0.0370885 0.00681185 0
0.170373 0.00998612 0
0.0114821 0.0101055 0
0.0370885 0.00681185 0
0.00777578 0.0226817 0
0.0296639 0.0126128 0
0.0370885 0.00681185 0
0.170373 0.00998612 0
0.0296639 0.0126128 0
0.175949 0.00749007 0
0 0 0
-0.000296024 0.0141555 0
0 0 0
0.0010761 0.0135272 0
-0.000296024 0.0141555 0
-0.00132582 0.0276097 0
0.0010761 0.0135272 0
0.00251529 0.0279932 0
0 0 0
0.0010761 0.0135272 0
0 0 0
-2.93858e-05 0.0126314 0
0.0010761 0.0135272 0
0.00251529 0.0279932 0
-2.93858e-05 0.0126314 0
0.00616969 0.0202925 0
-0.00132582 0.0276097 0
-0.00202645 0.0255235 0
0.00251529 0.0279932 0
0.00358283 0.0250212 0
-0.00202645 0.0255235 0
-0.00134762 0.0235932 0
0.00358283 0.0250212 0
0.00603807 0.0206996 0
0.00251529 0.0279932 0
0.00358283 0.0250212 0
0.00616969 0.0202925 0
0.0146843 0.0219212 0
0.00358283 0.0250212 0
0.00603807 0.0206996 0
0.0146843 0.0219212 0
0.0199275 0.0149699 0
-0.0193822 -0.0498335 0
-0.0417397 -0.0682415 0
-0.00983413 -0.0312466 0
-0.0317118 -0.0353468 0
-0.0417397 -0.0682415 0
-0.0688486 -0.0836994 0
-0.0317118 -0.0353468 0
-0.0629582 -0.0488261 0
-0.00983413 -0.0312466 0
-0.0317118 -0.0353468 0
0.0081053 -0.0230721 0
-0.00552338 -0.00168931 0
-0.0317118 -0.0353468 0
-0.0629582 -0.0488261 0
-0.00552338 -0.00168931 0
-0.0404052 -0.00582242 0
0.0081053 -0.0230721 0
-0.00552338 -0.00168931 0
0.0289623 -0.0127723 0
0.02874 0.00387953 0
-0.00552338 -0.00168931 0
-0.0404052 -0.00582242 0
0.02874 0.00387953 0
0.0467766 0.00806795 0
0.0289623 -0.0127723 0
0.02874 0.00387953 0
0.175023 -0.00737089 0
0.179188 -0.00655007 0
0.02874 0.00387953 0
0.0467766 0.00806795 0
0.179188 -0.00655007 0
0.180802 -0.00435259 0
-0.0688486 -0.0836994 0
-0.0841136 -0.0112961 0
-0.0629582 -0.0488261 0
-0.0772137 -0.0107787 0
-0.0841136 -0.0112961 0
-0.0690545 0.0582089 0
-0.0772137 -0.0107787 0
-0.0646475 0.0249844 0
-0.0629582 -0.0488261 0
-0.0772137 -0.0107787 0
-0.0404052 -0.00582242 0
-0.0451395 -0.0307698 0
-0.0772137 -0.0107787 0
-0.0646475 0.0249844 0
-0.0451395 -0.0307698 0
-0.0414083 0.0251751 0
-0.0690545 0.0582089 0
-0.0469566 0.0498784 0
-0.0646475 0.0249844 0
-0.0501879 0.040313 0
-0.0469566 0.0498784 0
-0.0431693 0.0420007 0
-0.0501879 0.040313 0
-0.0331943 0.0273339 0
-0.0646475 0.0249844 0
-0.0501879 0.040313 0
-0.0414083 0.0251751 0
-0.0435847 0.0261575 0
-0.0501879 0.040313 0
-0.0331943 0.0273339 0
-0.0435847 0.0261575 0
-0.0230709 -0.00220836 0
-0.0431693 0.0420007 0
-0.0386201 0.0274464 0
-0.0331943 0.0273339 0
-0.000539943 -0.00145015 0
-0.0386201 0.0274464 0
-0.0131174 0.0114741 0
-0.000539943 -0.00145015 0
0.0141674 -0.00707377 0
-0.0331943 0.0273339 0
-0.000539943 -0.00145015 0
-0.0230709 -0.00220836 0
-0.023666 -0.00913322 0
-0.000539943 -0.00145015 0
0.0141674 -0.00707377 0
-0.023666 -0.00913322 0
-0.0300711 -0.00877419 0
0 0 0
0 0 0
-0.00215115 0.00659237 0
-0.0376572 0.034654 0
0 0 0
0 0 0
-0.0376572 0.034654 0
-0.0366821 -0.0346505 0
-0.00215115 0.00659237 0
-0.0376572 0.034654 0
-0.00869437 0.0265915 0
0.013226 0.0303474 0
-0.0376572 0.034654 0
-0.0366821 -0.0346505 0
0.013226 0.0303474 0
0.0137442 -0.0313061 0
-0.00869437 0.0265915 0
0.013226 0.0303474 0
-0.011123 0.036283 0
0.00809397 -0.0263164 0
0.013226 0.0303474 0
0.0137442 -0.0313061 0
0.00809397 -0.0263164 0
-0.00143549 0.0352357 0
-0.011123 0.036283 0
0.00809397 -0.0263164 0
-0.0131174 0.0114741 0
-0.00579779 -0.0306562 0
0.00809397 -0.0263164 0
-0.00143549 0.0352357 0
-0.00579779 -0.0306562 0
-0.018958 0.0651845 0
-0.0131174 0.0114741 0
-0.00579779 -0.0306562 0
0.0141674 -0.00707377 0
-0.0107138 0.00786699 0
-0.00579779 -0.0306562 0
-0.018958 0.0651845 0
-0.0107138 0.00786699 0
-0.0222816 0.0549523 0
0.0141674 -0.00707377 0
-0.0107138 0.00786699 0
-0.0300711 -0.00877419 0
-0.012905 0.0184431 0
-0.0107138 0.00786699 0
-0.0222816 0.0549523 0
-0.012905 0.0184431 0
0.00811209 0.0335178 0
0 0 0
0 0 0
-0.0366821 -0.0346505 0
-0.0169072 0.0105034 0
0 0 0
0 0 0
-0.0169072 0.0105034 0
-0.0217483 -0.00401627 0
-0.0366821 -0.0346505 0
-0.0169072 0.0105034 0
0.0137442 -0.0313061 0
-0.028736 0.032511 0
-0.0169072 0.0105034 0
-0.0217483 -0.00401627 0
-0.028736 0.032511 0
-0.0425852 -0.00261712 0
0.0137442 -0.0313061 0
-0.028736 0.032511 0
-0.00143549 0.0352357 0
-0.0268058 0.0449922 0
-0.028736 0.032511 0
-0.0425852 -0.00261712 0
-0.0268058 0.0449922 0
-0.0264164 0.00144951 0
-0.00143549 0.0352357 0
-0.0268058 0.0449922 0
-0.018958 0.0651845 0
-0.0038312 0.0268509 0
-0.0268058 0.0449922 0
-0.0264164 0.00144951 0
-0.0038312 0.0268509 0
0.017562 -0.00568647 0
-0.018958 0.0651845 0
-0.0038312 0.0268509 0
-0.0222816 0.0549523 0
-0.0155752 0.0114879 0
-0.0038312 0.0268509 0
0.017562 -0.00568647 0
-0.0155752 0.0114879 0
-0.0139409 -0.0170475 0
-0.0222816 0.0549523 0
-0.0155752 0.0114879 0
0.00811209 0.0335178 0
0.0187339 0.0122803 0
-0.0155752 0.0114879 0
-0.0139409 -0.0170475 0
0.0187339 0.0122803 0
0.00376259 -0.00242829 0
0 0 0
0 0 0
-0.0217483 -0.00401627 0
-0.0155921 -0.00367751 0
0 0 0
0 0 0
-0.0155921 -0.00367751 0
-0.00327884 -0.0104441 0
-0.0217483 -0.00401627 0
-0.0155921 -0.00367751 0
-0.0425852 -0.00261712 0
-0.0404111 -0.0153942 0
-0.0155921 -0.00367751 0
-0.00327884 -0.0104441 0
-0.0404111 -0.0153942 0
-0.0268951 -0.0283978 0
-0.0425852 -0.00261712 0
-0.0404111 -0.0153942 0
-0.0264164 0.00144951 0
-0.0301383 -0.0179463 0
-0.0404111 -0.0153942 0
-0.0268951 -0.0283978 0
-0.0301383 -0.0179463 0
-0.0305388 -0.0411481 0
-0.0264164 0.00144951 0
-0.0301383 -0.0179463 0
0.017562 -0.00568647 0
0.0102811 0.00163178 0
-0.0301383 -0.0179463 0
-0.0305388 -0.0411481 0
0.0102811 0.00163178 0
-0.011183 -0.0353255 0
0.017562 -0.00568647 0
0.0102811 0.00163178 0
-0.0139409 -0.0170475 0
-0.00328223 0.00904652 0
0.0102811 0.00163178 0
-0.011183 -0.0353255 0
-0.00328223 0.00904652 0
-0.000830906 -0.0206506 0
-0.0139409 -0.0170475 0
-0.00328223 0.00904652 0
0.00376259 -0.00242829 0
0.00142148 -0.0159638 0
-0.00328223 0.00904652 0
-0.000830906 -0.0206506 0
0.00142148 -0.0159638 0
0.00286977 -0.000468258 0
0 0 0
0 0 0
-0.00327884 -0.0104441 0
0.00293295 0.00322303 0
0 0 0
0 0 0
0.00293295 0.00322303 0
0 0 0
-0.00327884 -0.0104441 0
0.00293295 0.00322303 0
-0.0268951 -0.0283978 0
-0.0101109 -0.0054641 0
0.00293295 0.00322303 0
0 0 0
-0.0101109 -0.0054641 0
0 0 0
-0.0268951 -0.0283978 0
-0.0101109 -0.0054641 0
-0.0305388 -0.0411481 0
-0.0129153 -0.0329283 0
-0.0101109 -0.0054641 0
0 0 0
-0.0129153 -0.0329283 0
0 0 0
-0.0305388 -0.0411481 0
-0.0129153 -0.0329283 0
-0.011183 -0.0353255 0
-0.010203 -0.0602645 0
-0.0129153 -0.0329283 0
0 0 0
-0.010203 -0.0602645 0
0 0 0
-0.011183 -0.0353255 0
-0.010203 -0.0602645 0
-0.000830906 -0.0206506 0
-0.00208211 -0.0748353 0
-0.010203 -0.0602645 0
0 0 0
-0.00208211 -0.0748353 0
0 0 0
-0.000830906 -0.0206506 0
-0.00208211 -0.0748353 0
0.00286977 -0.000468258 0
-0.00600467 -0.0843895 0
-0.00208211 -0.0748353 0
0 0 0
-0.00600467 -0.0843895 0
0 0 0
0.175949 0.00749007 0
0.176915 0.00725213 0
0.18009 0.00660849 0
0.171918 0.00535909 0
0.176915 0.00725213 0
0.131276 0.00319689 0
0.171918 0.00535909 0
0.130041 0.00244094 0
0.18009 0.00660849 0
0.171918 0.00535909 0
0.181665 0.00441535 0
0.168971 0.0034787 0
0.171918 0.00535909 0
0.130041 0.00244094 0
0.168971 0.0034787 0
0.128884 0.00168992 0
0.169514 0.0070112 0
0.103755 0.00601068 0
0.164912 0.00684342 0
0.106609 0.00582242 0
0.103755 0.00601068 0
0.231239 7.31541e-05 0
0.106609 0.00582242 0
0.218425 6.87292e-05 0
0.164912 0.00684342 0
0.106609 0.00582242 0
0.160401 0.00674439 0
0.108992 0.00533565 0
0.106609 0.00582242 0
0.218425 6.87292e-05 0
0.108992 0.00533565 0
0.206728 6.31809e-05 0
0.160401 0.00674439 0
0.108992 0.00533565 0
0.155863 0.00637543 0
0.111172 0.00508474 0
0.108992 0.00533565 0
0.206728 6.31809e-05 0
0.111172 0.00508474 0
0.19595 5.83783e-05 0
0.155863 0.00637543 0
0.111172 0.00508474 0
0.151802 0.00581638 0
0.113082 0.00461372 0
0.111172 0.00508474 0
0.19595 5.83783e-05 0
0.113082 0.00461372 0
0.186072 5.19894e-05 0
0.151802 0.00581638 0
0.113082 0.00461372 0
0.148227 0.00540393 0
0.114696 0.00436766 0
0.113082 0.00461372 0
0.186072 5.19894e-05 0
0.114696 0.00436766 0
0.177116 4.60377e-05 0
0.148227 0.00540393 0
0.114696 0.00436766 0
0.145005 0.00520478 0
0.115981 0.00394871 0
0.114696 0.00436766 0
0.177116 4.60377e-05 0
0.115981 0.00394871 0
0.169086 3.83064e-05 0
0.145005 0.00520478 0
0.115981 0.00394871 0
0.142104 0.00496445 0
0.116901 0.00387198 0
0.115981 0.00394871 0
0.169086 3.83064e-05 0
0.116901 0.00387198 0
0.161893 3.59105e-05 0
0.142104 0.00496445 0
0.116901 0.00387198 0
0.139484 0.00477494 0
0.117473 0.00345866 0
0.116901 0.00387198 0
0.161893 3.59105e-05 0
0.117473 0.00345866 0
0.1554 2.89289e-05 0
0.139484 0.00477494 0
0.117473 0.00345866 0
0.137108 0.0044953 0
0.117701 0.0034388 0
0.117473 0.00345866 0
0.1554 2.89289e-05 0
0.117701 0.0034388 0
0.149593 2.50003e-05 0
0.137108 0.0044953 0
0.117701 0.0034388 0
0.134884 0.00461822 0
0.117647 0.00305183 0
0.117701 0.0034388 0
0.149593 2.50003e-05 0
0.117647 0.00305183 0
0.144483 1.53667e-05 0
0.134884 0.00461822 0
0.117647 0.00305183 0
0.132875 0.00394584 0
0.117464 0.00303636 0
0.117647 0.00305183 0
0.144483 1.53667e-05 0
0.117464 0.00303636 0
0.139913 1.89406e-05 0
0.132875 0.00394584 0
0.117464 0.00303636 0
0.131276 0.00319689 0