# vtk DataFile Version 3.0
#This file was generated by the deal.II library on 2026/3/26 at 11:18:47
ASCII
DATASET UNSTRUCTURED_GRID

POINTS 3648 double
0 0 0
0.214286 0 0
0 0.25 0
0.214286 0.25 0
0 0.25 0
0.214286 0.25 0
0 0.5 0
0.214286 0.5 0
0.214286 0 0
0.428571 0 0
0.214286 0.25 0
0.428571 0.25 0
0.214286 0.25 0
0.428571 0.25 0
0.214286 0.5 0
0.428571 0.5 0
0.428571 0 0
0.642857 0 0
0.428571 0.25 0
0.642857 0.25 0
0.428571 0.25 0
0.642857 0.25 0
0.428571 0.5 0
0.642857 0.5 0
0.428571 0.5 0
0.642857 0.5 0
0.428571 0.75 0
0.642857 0.75 0
0.642857 0 0
0.857143 0 0
0.642857 0.25 0
0.857143 0.25 0
0.642857 0.25 0
0.857143 0.25 0
0.642857 0.5 0
0.857143 0.5 0
0.642857 0.5 0
0.857143 0.5 0
0.642857 0.75 0
0.857143 0.75 0
0.857143 0 0
1.07143 0 0
0.857143 0.25 0
1.07143 0.25 0
0.857143 0.25 0
1.07143 0.25 0
0.857143 0.5 0
1.07143 0.5 0
0.857143 0.5 0
1.07143 0.5 0
0.857143 0.75 0
1.07143 0.75 0
1.07143 0 0
1.28571 0 0
1.07143 0.25 0
1.28571 0.25 0
1.07143 0.25 0
1.28571 0.25 0
1.07143 0.5 0
1.28571 0.5 0
1.07143 0.5 0
1.28571 0.5 0
1.07143 0.75 0
1.28571 0.75 0
1.28571 0 0
1.5 0 0
1.28571 0.25 0
1.5 0.25 0
1.28571 0.25 0
1.5 0.25 0
1.28571 0.5 0
1.5 0.5 0
1.5 0 0
1.71429 0 0
1.5 0.25 0
1.71429 0.25 0
1.5 0.25 0
1.71429 0.25 0
1.5 0.5 0
1.71429 0.5 0
1.71429 0 0
1.92857 0 0
1.71429 0.25 0
1.92857 0.25 0
1.71429 0.25 0
1.92857 0.25 0
1.71429 0.5 0
1.92857 0.5 0
1.92857 0 0
2.14286 0 0
1.92857 0.25 0
2.14286 0.25 0
1.92857 0.25 0
2.14286 0.25 0
1.92857 0.5 0
2.14286 0.5 0
0 3 0
0 2.75 0
0.214286 3 0
0.214286 2.75 0
0.214286 3 0
0.214286 2.75 0
0.428571 3 0
0.428571 2.75 0
0.428571 3 0
0.428571 2.75 0
0.642857 3 0
0.642857 2.75 0
0.642857 3 0
0.642857 2.75 0
0.857143 3 0
0.857143 2.75 0
0.857143 3 0
0.857143 2.75 0
1.07143 3 0
1.07143 2.75 0
1.07143 3 0
1.07143 2.75 0
1.28571 3 0
1.28571 2.75 0
1.28571 3 0
1.28571 2.75 0
1.5 3 0
1.5 2.75 0
1.5 3 0
1.5 2.75 0
1.71429 3 0
1.71429 2.75 0
1.71429 3 0
1.71429 2.75 0
1.92857 3 0
1.92857 2.75 0
1.92857 3 0
1.92857 2.75 0
2.14286 3 0
2.14286 2.75 0
0 2.75 0
0 2.5 0
0.214286 2.75 0
0.214286 2.5 0
0.214286 2.75 0
0.214286 2.5 0
0.428571 2.75 0
0.428571 2.5 0
0.428571 2.75 0
0.428571 2.5 0
0.642857 2.75 0
0.642857 2.5 0
0.642857 2.75 0
0.642857 2.5 0
0.857143 2.75 0
0.857143 2.5 0
0.857143 2.75 0
0.857143 2.5 0
1.07143 2.75 0
1.07143 2.5 0
1.07143 2.75 0
1.07143 2.5 0
1.28571 2.75 0
1.28571 2.5 0
1.28571 2.75 0
1.28571 2.5 0
1.5 2.75 0
1.5 2.5 0
1.5 2.75 0
1.5 2.5 0
1.71429 2.75 0
1.71429 2.5 0
1.71429 2.75 0
1.71429 2.5 0
1.92857 2.75 0
1.92857 2.5 0
1.92857 2.75 0
1.92857 2.5 0
2.14286 2.75 0
2.14286 2.5 0
0.428571 2.5 0
0.428571 2.25 0
0.642857 2.5 0
0.642857 2.25 0
0.642857 2.5 0
0.642857 2.25 0
0.857143 2.5 0
0.857143 2.25 0
0.857143 2.5 0
0.857143 2.25 0
1.07143 2.5 0
1.07143 2.25 0
1.07143 2.5 0
1.07143 2.25 0
1.28571 2.5 0
1.28571 2.25 0
0.214286 0.75 0
0.321429 0.75 0
0.214286 0.875 0
0.321429 0.875 0
0.321429 0.75 0
0.428571 0.75 0
0.321429 0.875 0
0.428571 0.875 0
0.214286 0.875 0
0.321429 0.875 0
0.214286 1 0
0.321429 1 0
0.321429 0.875 0
0.428571 0.875 0
0.321429 1 0
0.428571 1 0
0.428571 0.75 0
0.535714 0.75 0
0.428571 0.875 0
0.535714 0.875 0
0.535714 0.75 0
0.642857 0.75 0
0.535714 0.875 0
0.642857 0.875 0
0.428571 0.875 0
0.535714 0.875 0
0.428571 1 0
0.535714 1 0
0.535714 0.875 0
0.642857 0.875 0
0.535714 1 0
0.642857 1 0
0.642857 0.75 0
0.75 0.75 0
0.642857 0.875 0
0.75 0.875 0
0.75 0.75 0
0.857143 0.75 0
0.75 0.875 0
0.857143 0.875 0
0.642857 0.875 0
0.75 0.875 0
0.642857 1 0
0.75 1 0
0.75 0.875 0
0.857143 0.875 0
0.75 1 0
0.857143 1 0
0.857143 0.75 0
0.964286 0.75 0
0.857143 0.875 0
0.964286 0.875 0
0.964286 0.75 0
1.07143 0.75 0
0.964286 0.875 0
1.07143 0.875 0
0.857143 0.875 0
0.964286 0.875 0
0.857143 1 0
0.964286 1 0
0.964286 0.875 0
1.07143 0.875 0
0.964286 1 0
1.07143 1 0
1.07143 0.75 0
1.17857 0.75 0
1.07143 0.875 0
1.17857 0.875 0
1.17857 0.75 0
1.28571 0.75 0
1.17857 0.875 0
1.28571 0.875 0
1.07143 0.875 0
1.17857 0.875 0
1.07143 1 0
1.17857 1 0
1.17857 0.875 0
1.28571 0.875 0
1.17857 1 0
1.28571 1 0
0.214286 2 0
0.214286 1.875 0
0.321429 2 0
0.321429 1.875 0
0.214286 1.875 0
0.214286 1.75 0
0.321429 1.875 0
0.321429 1.75 0
0.321429 2 0
0.321429 1.875 0
0.428571 2 0
0.428571 1.875 0
0.321429 1.875 0
0.321429 1.75 0
0.428571 1.875 0
0.428571 1.75 0
0.428571 2 0
0.428571 1.875 0
0.535714 2 0
0.535714 1.875 0
0.428571 1.875 0
0.428571 1.75 0
0.535714 1.875 0
0.535714 1.75 0
0.535714 2 0
0.535714 1.875 0
0.642857 2 0
0.642857 1.875 0
0.535714 1.875 0
0.535714 1.75 0
0.642857 1.875 0
0.642857 1.75 0
0.642857 2 0
0.642857 1.875 0
0.75 2 0
0.75 1.875 0
0.642857 1.875 0
0.642857 1.75 0
0.75 1.875 0
0.75 1.75 0
0.75 2 0
0.75 1.875 0
0.857143 2 0
0.857143 1.875 0
0.75 1.875 0
0.75 1.75 0
0.857143 1.875 0
0.857143 1.75 0
0.857143 2 0
0.857143 1.875 0
0.964286 2 0
0.964286 1.875 0
0.857143 1.875 0
0.857143 1.75 0
0.964286 1.875 0
0.964286 1.75 0
0.964286 2 0
0.964286 1.875 0
1.07143 2 0
1.07143 1.875 0
0.964286 1.875 0
0.964286 1.75 0
1.07143 1.875 0
1.07143 1.75 0
1.07143 2 0
1.07143 1.875 0
1.17857 2 0
1.17857 1.875 0
1.07143 1.875 0
1.07143 1.75 0
1.17857 1.875 0
1.17857 1.75 0
1.17857 2 0
1.17857 1.875 0
1.28571 2 0
1.28571 1.875 0
1.17857 1.875 0
1.17857 1.75 0
1.28571 1.875 0
1.28571 1.75 0
0.214286 1.25 0
0.214286 1.125 0
0.321429 1.25 0
0.321429 1.125 0
0.214286 1.125 0
0.214286 1 0
0.321429 1.125 0
0.321429 1 0
0.321429 1.25 0
0.321429 1.125 0
0.428571 1.25 0
0.428571 1.125 0
0.321429 1.125 0
0.321429 1 0
0.428571 1.125 0
0.428571 1 0
0.428571 1.25 0
0.428571 1.125 0
0.535714 1.25 0
0.535714 1.125 0
0.428571 1.125 0
0.428571 1 0
0.535714 1.125 0
0.535714 1 0
0.535714 1.25 0
0.535714 1.125 0
0.642857 1.25 0
0.642857 1.125 0
0.535714 1.125 0
0.535714 1 0
0.642857 1.125 0
0.642857 1 0
0.642857 1.25 0
0.642857 1.125 0
0.75 1.25 0
0.75 1.125 0
0.642857 1.125 0
0.642857 1 0
0.75 1.125 0
0.75 1 0
0.75 1.25 0
0.75 1.125 0
0.857143 1.25 0
0.857143 1.125 0
0.75 1.125 0
0.75 1 0
0.857143 1.125 0
0.857143 1 0
0.857143 1.25 0
0.857143 1.125 0
0.964286 1.25 0
0.964286 1.125 0
0.857143 1.125 0
0.857143 1 0
0.964286 1.125 0
0.964286 1 0
0.964286 1.25 0
0.964286 1.125 0
1.07143 1.25 0
1.07143 1.125 0
0.964286 1.125 0
0.964286 1 0
1.07143 1.125 0
1.07143 1 0
1.07143 1.25 0
1.07143 1.125 0
1.17857 1.25 0
1.17857 1.125 0
1.07143 1.125 0
1.07143 1 0
1.17857 1.125 0
1.17857 1 0
1.17857 1.25 0
1.17857 1.125 0
1.28571 1.25 0
1.28571 1.125 0
1.17857 1.125 0
1.17857 1 0
1.28571 1.125 0
1.28571 1 0
0.214286 2.25 0
0.214286 2.125 0
0.321429 2.25 0
0.321429 2.125 0
0.214286 2.125 0
0.214286 2 0
0.321429 2.125 0
0.321429 2 0
0.321429 2.25 0
0.321429 2.125 0
0.428571 2.25 0
0.428571 2.125 0
0.321429 2.125 0
0.321429 2 0
0.428571 2.125 0
0.428571 2 0
0.428571 2.25 0
0.428571 2.125 0
0.535714 2.25 0
0.535714 2.125 0
0.428571 2.125 0
0.428571 2 0
0.535714 2.125 0
0.535714 2 0
0.535714 2.25 0
0.535714 2.125 0
0.642857 2.25 0
0.642857 2.125 0
0.535714 2.125 0
0.535714 2 0
0.642857 2.125 0
0.642857 2 0
0.642857 2.25 0
0.642857 2.125 0
0.75 2.25 0
0.75 2.125 0
0.642857 2.125 0
0.642857 2 0
0.75 2.125 0
0.75 2 0
0.75 2.25 0
0.75 2.125 0
0.857143 2.25 0
0.857143 2.125 0
0.75 2.125 0
0.75 2 0
0.857143 2.125 0
0.857143 2 0
0.857143 2.25 0
0.857143 2.125 0
0.964286 2.25 0
0.964286 2.125 0
0.857143 2.125 0
0.857143 2 0
0.964286 2.125 0
0.964286 2 0
0.964286 2.25 0
0.964286 2.125 0
1.07143 2.25 0
1.07143 2.125 0
0.964286 2.125 0
0.964286 2 0
1.07143 2.125 0
1.07143 2 0
1.07143 2.25 0
1.07143 2.125 0
1.17857 2.25 0
1.17857 2.125 0
1.07143 2.125 0
1.07143 2 0
1.17857 2.125 0
1.17857 2 0
1.17857 2.25 0
1.17857 2.125 0
1.28571 2.25 0
1.28571 2.125 0
1.17857 2.125 0
1.17857 2 0
1.28571 2.125 0
1.28571 2 0
0 0.5 0
0.107143 0.5 0
0 0.625 0
0.107143 0.625 0
0.107143 0.5 0
0.214286 0.5 0
0.107143 0.625 0
0.214286 0.625 0
0 0.625 0
0.107143 0.625 0
0 0.75 0
0.107143 0.75 0
0.107143 0.625 0
0.214286 0.625 0
0.107143 0.75 0
0.214286 0.75 0
0.214286 0.5 0
0.321429 0.5 0
0.214286 0.625 0
0.321429 0.625 0
0.321429 0.5 0
0.428571 0.5 0
0.321429 0.625 0
0.428571 0.625 0
0.214286 0.625 0
0.321429 0.625 0
0.214286 0.75 0
0.321429 0.75 0
0.321429 0.625 0
0.428571 0.625 0
0.321429 0.75 0
0.428571 0.75 0
1.28571 0.5 0
1.39286 0.5 0
1.28571 0.625 0
1.39286 0.625 0
1.39286 0.5 0
1.5 0.5 0
1.39286 0.625 0
1.5 0.625 0
1.28571 0.625 0
1.39286 0.625 0
1.28571 0.75 0
1.39286 0.75 0
1.39286 0.625 0
1.5 0.625 0
1.39286 0.75 0
1.5 0.75 0
1.28571 0.75 0
1.39286 0.75 0
1.28571 0.875 0
1.39286 0.875 0
1.39286 0.75 0
1.5 0.75 0
1.39286 0.875 0
1.5 0.875 0
1.28571 0.875 0
1.39286 0.875 0
1.28571 1 0
1.39286 1 0
1.39286 0.875 0
1.5 0.875 0
1.39286 1 0
1.5 1 0
1.5 0.5 0
1.60714 0.5 0
1.5 0.625 0
1.60714 0.625 0
1.60714 0.5 0
1.71429 0.5 0
1.60714 0.625 0
1.71429 0.625 0
1.5 0.625 0
1.60714 0.625 0
1.5 0.75 0
1.60714 0.75 0
1.60714 0.625 0
1.71429 0.625 0
1.60714 0.75 0
1.71429 0.75 0
1.71429 0.5 0
1.82143 0.5 0
1.71429 0.625 0
1.82143 0.625 0
1.82143 0.5 0
1.92857 0.5 0
1.82143 0.625 0
1.92857 0.625 0
1.71429 0.625 0
1.82143 0.625 0
1.71429 0.75 0
1.82143 0.75 0
1.82143 0.625 0
1.92857 0.625 0
1.82143 0.75 0
1.92857 0.75 0
1.92857 0.5 0
2.03571 0.5 0
1.92857 0.625 0
2.03571 0.625 0
2.03571 0.5 0
2.14286 0.5 0
2.03571 0.625 0
2.14286 0.625 0
1.92857 0.625 0
2.03571 0.625 0
1.92857 0.75 0
2.03571 0.75 0
2.03571 0.625 0
2.14286 0.625 0
2.03571 0.75 0
2.14286 0.75 0
2.14286 0 0
2.25 0 0
2.14286 0.125 0
2.25 0.125 0
2.25 0 0
2.35714 0 0
2.25 0.125 0
2.35714 0.125 0
2.14286 0.125 0
2.25 0.125 0
2.14286 0.25 0
2.25 0.25 0
2.25 0.125 0
2.35714 0.125 0
2.25 0.25 0
2.35714 0.25 0
2.14286 0.25 0
2.25 0.25 0
2.14286 0.375 0
2.25 0.375 0
2.25 0.25 0
2.35714 0.25 0
2.25 0.375 0
2.35714 0.375 0
2.14286 0.375 0
2.25 0.375 0
2.14286 0.5 0
2.25 0.5 0
2.25 0.375 0
2.35714 0.375 0
2.25 0.5 0
2.35714 0.5 0
2.14286 0.5 0
2.25 0.5 0
2.14286 0.625 0
2.25 0.625 0
2.25 0.5 0
2.35714 0.5 0
2.25 0.625 0
2.35714 0.625 0
2.14286 0.625 0
2.25 0.625 0
2.14286 0.75 0
2.25 0.75 0
2.25 0.625 0
2.35714 0.625 0
2.25 0.75 0
2.35714 0.75 0
2.35714 0 0
2.46429 0 0
[...]
POINT_DATA 3648
VECTORS velocity double
0 0 0
0 0 0
0 0 0
-0.0115531 0.0129997 0
0 0 0
-0.0115531 0.0129997 0
0 0 0
-0.00157444 0.0284615 0
0 0 0
0 0 0
-0.0115531 0.0129997 0
-0.0343181 0.0133391 0
-0.0115531 0.0129997 0
-0.0343181 0.0133391 0
-0.00157444 0.0284615 0
-0.00176155 0.0250107 0
0 0 0
0 0 0
-0.0343181 0.0133391 0
-0.0523481 0.0080846 0
-0.0343181 0.0133391 0
-0.0523481 0.0080846 0
-0.00176155 0.0250107 0
-0.00269282 0.0185758 0
-0.00176155 0.0250107 0
-0.00269282 0.0185758 0
0.0206205 0.0158677 0
0.0357915 0.0116416 0
0 0 0
0 0 0
-0.0523481 0.0080846 0
-0.0586291 -0.000432264 0
-0.0523481 0.0080846 0
-0.0586291 -0.000432264 0
-0.00269282 0.0185758 0
0.00325477 -0.0116116 0
-0.00269282 0.0185758 0
0.00325477 -0.0116116 0
0.0357915 0.0116416 0
0.0347613 -0.0103062 0
0 0 0
0 0 0
-0.0586291 -0.000432264 0
-0.0484917 -0.0110785 0
-0.0586291 -0.000432264 0
-0.0484917 -0.0110785 0
0.00325477 -0.0116116 0
0.0071891 -0.0161725 0
0.00325477 -0.0116116 0
0.0071891 -0.0161725 0
0.0347613 -0.0103062 0
0.0176271 -0.00111711 0
0 0 0
0 0 0
-0.0484917 -0.0110785 0
-0.00763005 -0.0388684 0
-0.0484917 -0.0110785 0
-0.00763005 -0.0388684 0
0.0071891 -0.0161725 0
-0.0201395 -0.0497269 0
0.0071891 -0.0161725 0
-0.0201395 -0.0497269 0
0.0176271 -0.00111711 0
0.00830948 -0.0226203 0
0 0 0
0 0 0
-0.00763005 -0.0388684 0
0.0727321 -0.0560361 0
-0.00763005 -0.0388684 0
0.0727321 -0.0560361 0
-0.0201395 -0.0497269 0
-0.0672367 -0.0821773 0
0 0 0
0 0 0
0.0727321 -0.0560361 0
0.0818442 0.0457598 0
0.0727321 -0.0560361 0
0.0818442 0.0457598 0
-0.0672367 -0.0821773 0
-0.0661994 0.0577835 0
0 0 0
0 0 0
0.0818442 0.0457598 0
0.0280776 0.0167399 0
0.0818442 0.0457598 0
0.0280776 0.0167399 0
-0.0661994 0.0577835 0
-0.0422891 0.0403379 0
0 0 0
0 0 0
0.0280776 0.0167399 0
-0.0104048 0.0269425 0
0.0280776 0.0167399 0
-0.0104048 0.0269425 0
-0.0422891 0.0403379 0
-0.011796 0.0122366 0
0 0 0
0 0 0
0 0 0
-0.0116498 -0.0131068 0
0 0 0
-0.0116498 -0.0131068 0
0 0 0
-0.0345559 -0.0133927 0
0 0 0
-0.0345559 -0.0133927 0
0 0 0
-0.0525481 -0.00799627 0
0 0 0
-0.0525481 -0.00799627 0
0 0 0
-0.0586572 0.000535828 0
0 0 0
-0.0586572 0.000535828 0
0 0 0
-0.0484579 0.0110507 0
0 0 0
-0.0484579 0.0110507 0
0 0 0
-0.00755613 0.0389618 0
0 0 0
-0.00755613 0.0389618 0
0 0 0
0.0728638 0.0560162 0
0 0 0
0.0728638 0.0560162 0
0 0 0
0.0819461 -0.0457649 0
0 0 0
0.0819461 -0.0457649 0
0 0 0
0.0282305 -0.016686 0
0 0 0
0.0282305 -0.016686 0
0 0 0
-0.0103075 -0.027054 0
0 0 0
0 0 0
-0.0116498 -0.0131068 0
-0.00158619 -0.0286993 0
-0.0116498 -0.0131068 0
-0.00158619 -0.0286993 0
-0.0345559 -0.0133927 0
-0.00173631 -0.0250604 0
-0.0345559 -0.0133927 0
-0.00173631 -0.0250604 0
-0.0525481 -0.00799627 0
-0.00262 -0.0183894 0
-0.0525481 -0.00799627 0
-0.00262 -0.0183894 0
-0.0586572 0.000535828 0
0.00337365 0.0118815 0
-0.0586572 0.000535828 0
0.00337365 0.0118815 0
-0.0484579 0.0110507 0
0.00737041 0.0161195 0
-0.0484579 0.0110507 0
0.00737041 0.0161195 0
-0.00755613 0.0389618 0
-0.0201048 0.0497189 0
-0.00755613 0.0389618 0
-0.0201048 0.0497189 0
0.0728638 0.0560162 0
-0.0672915 0.0821985 0
0.0728638 0.0560162 0
-0.0672915 0.0821985 0
0.0819461 -0.0457649 0
-0.066206 -0.0577909 0
0.0819461 -0.0457649 0
-0.066206 -0.0577909 0
0.0282305 -0.016686 0
-0.0423004 -0.040233 0
0.0282305 -0.016686 0
-0.0423004 -0.040233 0
-0.0103075 -0.027054 0
-0.0118109 -0.0124602 0
-0.00173631 -0.0250604 0
0.0207645 -0.0159331 0
-0.00262 -0.0183894 0
0.0358624 -0.0114707 0
-0.00262 -0.0183894 0
0.0358624 -0.0114707 0
0.00337365 0.0118815 0
0.0346984 0.0104749 0
0.00337365 0.0118815 0
0.0346984 0.0104749 0
0.00737041 0.0161195 0
0.017413 0.00104273 0
0.00737041 0.0161195 0
0.017413 0.00104273 0
-0.0201048 0.0497189 0
0.00816774 0.0225535 0
0.006592 0.0210492 0
0.0152559 0.0227458 0
0.00342524 0.0117534 0
0.010666 0.0133397 0
0.0152559 0.0227458 0
0.0206205 0.0158677 0
0.010666 0.0133397 0
0.0195243 0.00886913 0
0.00342524 0.0117534 0
0.010666 0.0133397 0
0.0520381 -0.0033694 0
0.0741014 -0.00501498 0
0.010666 0.0133397 0
0.0195243 0.00886913 0
0.0741014 -0.00501498 0
0.0930084 -0.00489992 0
0.0206205 0.0158677 0
0.0276811 0.013269 0
0.0195243 0.00886913 0
0.0248934 0.00601549 0
0.0276811 0.013269 0
0.0357915 0.0116416 0
0.0248934 0.00601549 0
0.0296481 0.00422447 0
0.0195243 0.00886913 0
0.0248934 0.00601549 0
0.0930084 -0.00489992 0
0.109367 -0.00575828 0
0.0248934 0.00601549 0
0.0296481 0.00422447 0
0.109367 -0.00575828 0
0.123294 -0.00634086 0
0.0357915 0.0116416 0
0.0398073 0.00152795 0
0.0296481 0.00422447 0
0.0330556 0.000792911 0
0.0398073 0.00152795 0
0.0347613 -0.0103062 0
0.0330556 0.000792911 0
0.0327374 -0.0026601 0
0.0296481 0.00422447 0
0.0330556 0.000792911 0
0.123294 -0.00634086 0
0.135427 -0.00747234 0
0.0330556 0.000792911 0
0.0327374 -0.0026601 0
0.135427 -0.00747234 0
0.146297 -0.00748055 0
0.0347613 -0.0103062 0
0.025744 -0.00680978 0
0.0327374 -0.0026601 0
0.0317026 -0.00235068 0
0.025744 -0.00680978 0
0.0176271 -0.00111711 0
0.0317026 -0.00235068 0
0.0354776 -0.000271102 0
0.0327374 -0.0026601 0
0.0317026 -0.00235068 0
0.146297 -0.00748055 0
0.155959 -0.00851857 0
0.0317026 -0.00235068 0
0.0354776 -0.000271102 0
0.155959 -0.00851857 0
0.164085 -0.00895753 0
0.0176271 -0.00111711 0
0.0113802 -0.0102069 0
0.0354776 -0.000271102 0
0.0385039 -0.00697252 0
0.0113802 -0.0102069 0
0.00830948 -0.0226203 0
0.0385039 -0.00697252 0
0.0309497 -0.0129289 0
0.0354776 -0.000271102 0
0.0385039 -0.00697252 0
0.164085 -0.00895753 0
0.170771 -0.0103622 0
0.0385039 -0.00697252 0
0.0309497 -0.0129289 0
0.170771 -0.0103622 0
0.176603 -0.00776923 0
0.0520445 0.00337656 0
0.240618 0.0132671 0
0.0741351 0.00501407 0
0.233579 0.0122807 0
0.240618 0.0132671 0
0.157983 0.00658741 0
0.233579 0.0122807 0
0.153855 0.00623097 0
0.0741351 0.00501407 0
0.233579 0.0122807 0
0.0930704 0.00490062 0
0.226977 0.0112168 0
0.233579 0.0122807 0
0.153855 0.00623097 0
0.226977 0.0112168 0
0.150186 0.00566969 0
0.0930704 0.00490062 0
0.226977 0.0112168 0
0.109458 0.00576842 0
0.220702 0.0102182 0
0.226977 0.0112168 0
0.150186 0.00566969 0
0.220702 0.0102182 0
0.146973 0.00529064 0
0.109458 0.00576842 0
0.220702 0.0102182 0
0.123418 0.0063635 0
0.214666 0.00997506 0
0.220702 0.0102182 0
0.146973 0.00529064 0
0.214666 0.00997506 0
0.14407 0.00513845 0
0.123418 0.0063635 0
0.214666 0.00997506 0
0.135578 0.00751451 0
0.208649 0.00953191 0
0.214666 0.00997506 0
0.14407 0.00513845 0
0.208649 0.00953191 0
0.141436 0.0049494 0
0.135578 0.00751451 0
0.208649 0.00953191 0
0.14647 0.00752291 0
0.202481 0.00946629 0
0.208649 0.00953191 0
0.141436 0.0049494 0
0.202481 0.00946629 0
0.139034 0.00477734 0
0.14647 0.00752291 0
0.202481 0.00946629 0
0.156155 0.00855856 0
0.196148 0.00901751 0
0.202481 0.00946629 0
0.139034 0.00477734 0
0.196148 0.00901751 0
0.136834 0.00454968 0
0.156155 0.00855856 0
0.196148 0.00901751 0
0.164298 0.00899462 0
0.189821 0.0094289 0
0.196148 0.00901751 0
0.136834 0.00454968 0
0.189821 0.0094289 0
0.13474 0.00475737 0
0.164298 0.00899462 0
0.189821 0.0094289 0
0.170994 0.0104029 0
0.183395 0.00877243 0
0.189821 0.0094289 0
0.13474 0.00475737 0
0.183395 0.00877243 0
0.132823 0.00409547 0
0.170994 0.0104029 0
0.183395 0.00877243 0
0.176829 0.00779899 0
0.176929 0.00756998 0
0.183395 0.00877243 0
0.132823 0.00409547 0
0.176929 0.00756998 0
0.131288 0.00334106 0
0.158249 -0.00659464 0
0.240562 -0.0132613 0
0.154116 -0.00623758 0
0.233547 -0.0122792 0
0.240562 -0.0132613 0
0.0520381 -0.0033694 0
0.233547 -0.0122792 0
0.0741014 -0.00501498 0
0.154116 -0.00623758 0
0.233547 -0.0122792 0
0.150441 -0.00567306 0
0.226966 -0.011213 0
0.233547 -0.0122792 0
0.0741014 -0.00501498 0
0.226966 -0.011213 0
0.0930084 -0.00489992 0
0.150441 -0.00567306 0
0.226966 -0.011213 0
0.147223 -0.0052901 0
0.220714 -0.0102081 0
0.226966 -0.011213 0
0.0930084 -0.00489992 0
0.220714 -0.0102081 0
0.109367 -0.00575828 0
0.147223 -0.0052901 0
0.220714 -0.0102081 0
0.144316 -0.00513379 0
0.214707 -0.0099543 0
0.220714 -0.0102081 0
0.109367 -0.00575828 0
0.214707 -0.0099543 0
0.123294 -0.00634086 0
0.144316 -0.00513379 0
0.214707 -0.0099543 0
0.141678 -0.00494165 0
0.208726 -0.00950553 0
0.214707 -0.0099543 0
0.123294 -0.00634086 0
0.208726 -0.00950553 0
0.135427 -0.00747234 0
0.141678 -0.00494165 0
0.208726 -0.00950553 0
0.139273 -0.00476864 0
0.2026 -0.00943713 0
0.208726 -0.00950553 0
0.135427 -0.00747234 0
0.2026 -0.00943713 0
0.146297 -0.00748055 0
0.139273 -0.00476864 0
0.2026 -0.00943713 0
0.137067 -0.00454191 0
0.196309 -0.00899346 0
0.2026 -0.00943713 0
0.146297 -0.00748055 0
0.196309 -0.00899346 0
0.155959 -0.00851857 0
0.137067 -0.00454191 0
0.196309 -0.00899346 0
0.134964 -0.00474843 0
0.190021 -0.00940599 0
0.196309 -0.00899346 0
0.155959 -0.00851857 0
0.190021 -0.00940599 0
0.164085 -0.00895753 0
0.134964 -0.00474843 0
0.190021 -0.00940599 0
0.133036 -0.0040925 0
0.183631 -0.00875675 0
0.190021 -0.00940599 0
0.164085 -0.00895753 0
0.183631 -0.00875675 0
0.170771 -0.0103622 0
0.133036 -0.0040925 0
0.183631 -0.00875675 0
0.131489 -0.00333931 0
0.1772 -0.00755762 0
0.183631 -0.00875675 0
0.170771 -0.0103622 0
0.1772 -0.00755762 0
0.176603 -0.00776923 0
0.00669508 -0.0212247 0
0.00346145 -0.0118416 0
0.0153984 -0.0228775 0
0.0108025 -0.0133962 0
0.00346145 -0.0118416 0
0.0520445 0.00337656 0
0.0108025 -0.0133962 0
0.0741351 0.00501407 0
0.0153984 -0.0228775 0
0.0108025 -0.0133962 0
0.0207645 -0.0159331 0
0.0197288 -0.00892948 0
0.0108025 -0.0133962 0
0.0741351 0.00501407 0
0.0197288 -0.00892948 0
0.0930704 0.00490062 0
0.0207645 -0.0159331 0
0.0197288 -0.00892948 0
0.0277746 -0.013218 0
0.0251174 -0.00600584 0
0.0197288 -0.00892948 0
0.0930704 0.00490062 0
0.0251174 -0.00600584 0
0.109458 0.00576842 0
0.0277746 -0.013218 0
0.0251174 -0.00600584 0
0.0358624 -0.0114707 0
0.0297838 -0.004141 0
0.0251174 -0.00600584 0
0.109458 0.00576842 0
0.0297838 -0.004141 0
0.123418 0.0063635 0
0.0358624 -0.0114707 0
0.0297838 -0.004141 0
0.0398417 -0.00135853 0
0.033075 -0.00071133 0
0.0297838 -0.004141 0
0.123418 0.0063635 0
0.033075 -0.00071133 0
0.135578 0.00751451 0
0.0398417 -0.00135853 0
0.033075 -0.00071133 0
0.0346984 0.0104749 0
0.0326829 0.00272107 0
0.033075 -0.00071133 0
0.135578 0.00751451 0
0.0326829 0.00272107 0
0.14647 0.00752291 0
0.0346984 0.0104749 0
0.0326829 0.00272107 0
0.025579 0.00686683 0
0.0316218 0.00237304 0
0.0326829 0.00272107 0
0.14647 0.00752291 0
0.0316218 0.00237304 0
0.156155 0.00855856 0
0.025579 0.00686683 0
0.0316218 0.00237304 0
0.017413 0.00104273 0
0.0354481 0.000242217 0
0.0316218 0.00237304 0
0.156155 0.00855856 0
0.0354481 0.000242217 0
0.164298 0.00899462 0
0.017413 0.00104273 0
0.0354481 0.000242217 0
0.0111723 0.0101195 0
0.0385668 0.00695974 0
0.0354481 0.000242217 0
0.164298 0.00899462 0
0.0385668 0.00695974 0
0.170994 0.0104029 0
0.0111723 0.0101195 0
0.0385668 0.00695974 0
0.00816774 0.0225535 0
0.031074 0.0129374 0
0.0385668 0.00695974 0
0.170994 0.0104029 0
0.031074 0.0129374 0
0.176829 0.00779899 0
0 0 0
-0.000355568 0.0145863 0
0 0 0
0.00118549 0.0138667 0
-0.000355568 0.0145863 0
-0.00157444 0.0284615 0
0.00118549 0.0138667 0
0.00273844 0.028976 0
0 0 0
0.00118549 0.0138667 0
0 0 0
8.85435e-05 0.0126619 0
0.00118549 0.0138667 0
0.00273844 0.028976 0
8.85435e-05 0.0126619 0
0.006592 0.0210492 0
-0.00157444 0.0284615 0
-0.00244594 0.0266781 0
0.00273844 0.028976 0
0.00395661 0.0260161 0
-0.00244594 0.0266781 0
-0.00176155 0.0250107 0
0.00395661 0.0260161 0
0.00667165 0.0219198 0
0.00273844 0.028976 0
0.00395661 0.0260161 0
0.006592 0.0210492 0
0.0152559 0.0227458 0
0.00395661 0.0260161 0
0.00667165 0.0219198 0
0.0152559 0.0227458 0
0.0206205 0.0158677 0
-0.0201395 -0.0497269 0
-0.0426728 -0.0675857 0
-0.00949138 -0.030187 0
-0.0304286 -0.036475 0
-0.0426728 -0.0675857 0
-0.0672367 -0.0821773 0
-0.0304286 -0.036475 0
-0.0615542 -0.0486403 0
-0.00949138 -0.030187 0
-0.0304286 -0.036475 0
0.00830948 -0.0226203 0
-0.00393079 -0.00492521 0
-0.0304286 -0.036475 0
-0.0615542 -0.0486403 0
-0.00393079 -0.00492521 0
-0.0377969 -0.00491745 0
0.00830948 -0.0226203 0
-0.00393079 -0.00492521 0
0.0309497 -0.0129289 0
0.0290503 0.00155076 0
-0.00393079 -0.00492521 0
-0.0377969 -0.00491745 0
0.0290503 0.00155076 0
0.045972 0.0082222 0
0.0309497 -0.0129289 0
0.0290503 0.00155076 0
0.176603 -0.00776923 0
0.181057 -0.00710408 0
0.0290503 0.00155076 0
0.045972 0.0082222 0
0.181057 -0.00710408 0
0.182761 -0.00473665 0
-0.0672367 -0.0821773 0
-0.0802488 -0.010309 0
-0.0615542 -0.0486403 0
-0.0758167 -0.0108786 0
-0.0802488 -0.010309 0
-0.0661994 0.0577835 0
-0.0758167 -0.0108786 0
-0.0624649 0.0259014 0
-0.0615542 -0.0486403 0
-0.0758167 -0.0108786 0
-0.0377969 -0.00491745 0
-0.0429075 -0.0311139 0
-0.0758167 -0.0108786 0
-0.0624649 0.0259014 0
-0.0429075 -0.0311139 0
-0.0389105 0.0251369 0
-0.0661994 0.0577835 0
-0.0458752 0.0484809 0
-0.0624649 0.0259014 0
-0.0480292 0.0397066 0
-0.0458752 0.0484809 0
-0.0422891 0.0403379 0
-0.0480292 0.0397066 0
-0.0328913 0.0271986 0
-0.0624649 0.0259014 0
-0.0480292 0.0397066 0
-0.0389105 0.0251369 0
-0.0423265 0.0280029 0
-0.0480292 0.0397066 0
-0.0328913 0.0271986 0
-0.0423265 0.0280029 0
-0.0225821 -0.00170111 0
-0.0422891 0.0403379 0
-0.0373485 0.0271448 0
-0.0328913 0.0271986 0
-0.00163014 -0.00207251 0
-0.0373485 0.0271448 0
-0.011796 0.0122366 0
-0.00163014 -0.00207251 0
0.0135523 -0.00657211 0
-0.0328913 0.0271986 0
-0.00163014 -0.00207251 0
-0.0225821 -0.00170111 0
-0.0231168 -0.00878173 0
-0.00163014 -0.00207251 0
0.0135523 -0.00657211 0
-0.0231168 -0.00878173 0
-0.0295861 -0.00972346 0
0 0 0
0 0 0
-0.00306684 0.00668199 0
-0.0381927 0.0341447 0
0 0 0
0 0 0
-0.0381927 0.0341447 0
-0.0374936 -0.0338165 0
-0.00306684 0.00668199 0
-0.0381927 0.0341447 0
-0.0104048 0.0269425 0
0.012602 0.0279258 0
-0.0381927 0.0341447 0
-0.0374936 -0.0338165 0
0.012602 0.0279258 0
0.0144083 -0.0297642 0
-0.0104048 0.0269425 0
0.012602 0.0279258 0
-0.0113771 0.0368874 0
0.00718389 -0.0294224 0
0.012602 0.0279258 0
0.0144083 -0.0297642 0
0.00718389 -0.0294224 0
-0.00346537 0.0371711 0
-0.0113771 0.0368874 0
0.00718389 -0.0294224 0
-0.011796 0.0122366 0
-0.00639313 -0.0308723 0
0.00718389 -0.0294224 0
-0.00346537 0.0371711 0
-0.00639313 -0.0308723 0
-0.020544 0.0666829 0
-0.011796 0.0122366 0
-0.00639313 -0.0308723 0
0.0135523 -0.00657211 0
-0.00997322 0.00861109 0
-0.00639313 -0.0308723 0
-0.020544 0.0666829 0
-0.00997322 0.00861109 0
-0.020814 0.0558095 0
0.0135523 -0.00657211 0
-0.00997322 0.00861109 0
-0.0295861 -0.00972346 0
-0.0112732 0.0177306 0
-0.00997322 0.00861109 0
-0.020814 0.0558095 0
-0.0112732 0.0177306 0
0.00982412 0.0349179 0
0 0 0
0 0 0
-0.0374936 -0.0338165 0
-0.0182852 0.0103041 0
0 0 0
0 0 0
-0.0182852 0.0103041 0
-0.0231514 -0.00373641 0
-0.0374936 -0.0338165 0
-0.0182852 0.0103041 0
0.0144083 -0.0297642 0
-0.0292636 0.0336179 0
-0.0182852 0.0103041 0
-0.0231514 -0.00373641 0
-0.0292636 0.0336179 0
-0.0441342 -0.00234081 0
0.0144083 -0.0297642 0
-0.0292636 0.0336179 0
-0.00346537 0.0371711 0
-0.0283076 0.0464827 0
-0.0292636 0.0336179 0
-0.0441342 -0.00234081 0
-0.0283076 0.0464827 0
-0.0267689 0.00123442 0
-0.00346537 0.0371711 0
-0.0283076 0.0464827 0
-0.020544 0.0666829 0
-0.00356413 0.0260461 0
-0.0283076 0.0464827 0
-0.0267689 0.00123442 0
-0.00356413 0.0260461 0
0.0179584 -0.00511193 0
-0.020544 0.0666829 0
-0.00356413 0.0260461 0
-0.020814 0.0558095 0
-0.0160468 0.0114203 0
-0.00356413 0.0260461 0
0.0179584 -0.00511193 0
-0.0160468 0.0114203 0
-0.0157594 -0.0157729 0
-0.020814 0.0558095 0
-0.0160468 0.0114203 0
0.00982412 0.0349179 0
0.0204461 0.0139395 0
-0.0160468 0.0114203 0
-0.0157594 -0.0157729 0
0.0204461 0.0139395 0
0.00568203 -0.00150887 0
0 0 0
0 0 0
-0.0231514 -0.00373641 0
-0.0169533 -0.00406271 0
0 0 0
0 0 0
-0.0169533 -0.00406271 0
-0.0040474 -0.0107222 0
-0.0231514 -0.00373641 0
-0.0169533 -0.00406271 0
-0.0441342 -0.00234081 0
-0.0421203 -0.0157184 0
-0.0169533 -0.00406271 0
-0.0040474 -0.0107222 0
-0.0421203 -0.0157184 0
-0.0285227 -0.0294641 0
-0.0441342 -0.00234081 0
-0.0421203 -0.0157184 0
-0.0267689 0.00123442 0
-0.0303215 -0.0178461 0
-0.0421203 -0.0157184 0
-0.0285227 -0.0294641 0
-0.0303215 -0.0178461 0
-0.0309671 -0.0423901 0
-0.0267689 0.00123442 0
-0.0303215 -0.0178461 0
0.0179584 -0.00511193 0
0.0101712 0.00127044 0
-0.0303215 -0.0178461 0
-0.0309671 -0.0423901 0
0.0101712 0.00127044 0
-0.0107979 -0.03637 0
0.0179584 -0.00511193 0
0.0101712 0.00127044 0
-0.0157594 -0.0157729 0
-0.00397783 0.00724239 0
0.0101712 0.00127044 0
-0.0107979 -0.03637 0
-0.00397783 0.00724239 0
-0.000700767 -0.0217455 0
-0.0157594 -0.0157729 0
-0.00397783 0.00724239 0
0.00568203 -0.00150887 0
0.00159879 -0.016702 0
-0.00397783 0.00724239 0
-0.000700767 -0.0217455 0
0.00159879 -0.016702 0
0.00279399 -0.00324122 0
0 0 0
0 0 0
-0.0040474 -0.0107222 0
0.00265632 0.00292298 0
0 0 0
0 0 0
0.00265632 0.00292298 0
0 0 0
-0.0040474 -0.0107222 0
0.00265632 0.00292298 0
-0.0285227 -0.0294641 0
-0.0107166 -0.00677066 0
0.00265632 0.00292298 0
0 0 0
-0.0107166 -0.00677066 0
0 0 0
-0.0285227 -0.0294641 0
-0.0107166 -0.00677066 0
-0.0309671 -0.0423901 0
-0.0132772 -0.0353188 0
-0.0107166 -0.00677066 0
0 0 0
-0.0132772 -0.0353188 0
0 0 0
-0.0309671 -0.0423901 0
-0.0132772 -0.0353188 0
-0.0107979 -0.03637 0
-0.00998834 -0.0627544 0
-0.0132772 -0.0353188 0
0 0 0
-0.00998834 -0.0627544 0
0 0 0
-0.0107979 -0.03637 0
-0.00998834 -0.0627544 0
-0.000700767 -0.0217455 0
-0.00206691 -0.0769714 0
-0.00998834 -0.0627544 0
0 0 0
-0.00206691 -0.0769714 0
0 0 0
-0.000700767 -0.0217455 0
-0.00206691 -0.0769714 0
0.00279399 -0.00324122 0
-0.00533057 -0.0856154 0
-0.00206691 -0.0769714 0
0 0 0
-0.00533057 -0.0856154 0
0 0 0
0.176829 0.00779899 0
0.176929 0.00756998 0
0.181285 0.00713304 0
0.171502 0.00571862 0
0.176929 0.00756998 0
0.131288 0.00334106 0
0.171502 0.00571862 0
0.13012 0.00259938 0
0.181285 0.00713304 0
0.171502 0.00571862 0
0.182979 0.00475197 0
0.168239 0.00372882 0
0.171502 0.00571862 0
0.13012 0.00259938 0
0.168239 0.00372882 0
0.128994 0.00183185 0
0.166091 0.00680854 0
0.107269 0.00597553 0
0.16203 0.00665815 0
0.109854 0.00578199 0
0.107269 0.00597553 0
0.227906 5.38893e-06 0
0.109854 0.00578199 0
0.21531 5.0828e-06 0
0.16203 0.00665815 0
0.109854 0.00578199 0
0.157983 0.00658741 0
0.112002 0.0052857 0
0.109854 0.00578199 0
0.21531 5.0828e-06 0
0.112002 0.0052857 0
0.203812 4.91545e-06 0
0.157983 0.00658741 0
0.112002 0.0052857 0
0.153855 0.00623097 0
0.113974 0.00503571 0
0.112002 0.0052857 0
0.203812 4.91545e-06 0
0.113974 0.00503571 0
0.193221 4.79847e-06 0
0.153855 0.00623097 0
0.113974 0.00503571 0
0.150186 0.00566969 0
0.115687 0.00455857 0
0.113974 0.00503571 0
0.193221 4.79847e-06 0
0.115687 0.00455857 0
0.183526 5.22365e-06 0
0.150186 0.00566969 0
0.115687 0.00455857 0
0.146973 0.00529064 0
0.117114 0.0043252 0
0.115687 0.00455857 0
0.183526 5.22365e-06 0
0.117114 0.0043252 0
0.174744 5.67606e-06 0
0.146973 0.00529064 0
0.117114 0.0043252 0
0.14407 0.00513845 0
0.118223 0.00391866 0
0.117114 0.0043252 0
0.174744 5.67606e-06 0
0.118223 0.00391866 0
0.166873 6.04147e-06 0
0.14407 0.00513845 0
0.118223 0.00391866 0
0.141436 0.0049494 0
0.118971 0.00386222 0
0.118223 0.00391866 0
0.166873 6.04147e-06 0
0.118971 0.00386222 0
0.159821 6.60192e-06 0
0.141436 0.0049494 0
0.118971 0.00386222 0
0.139034 0.00477734 0
0.119371 0.00344433 0
0.118971 0.00386222 0
0.159821 6.60192e-06 0
0.119371 0.00344433 0
0.15345 6.37719e-06 0
0.139034 0.00477734 0
0.119371 0.00344433 0
0.136834 0.00454968 0
0.119422 0.00346042 0
0.119371 0.00344433 0
0.15345 6.37719e-06 0
0.119422 0.00346042 0
0.147743 7.36132e-06 0
0.136834 0.00454968 0
0.119422 0.00346042 0
0.13474 0.00475737 0
0.119191 0.0030966 0
0.119422 0.00346042 0
0.147743 7.36132e-06 0
0.119191 0.0030966 0
0.142711 6.78581e-06 0
0.13474 0.00475737 0
0.119191 0.0030966 0
0.132823 0.00409547 0
0.118828 0.00309464 0
0.119191 0.0030966 0
0.142711 6.78581e-06 0
0.118828 0.00309464 0
0.138201 5.20595e-06 0
0.132823 0.00409547 0
0.118828 0.00309464 0
0.131288 0.00334106 0
0.11851 0.00236242 0
0.118828 0.00309464 0