# vtk DataFile Version 3.0
#This file was generated by the deal.II library on 2026/3/26 at 11:18:34
ASCII
DATASET UNSTRUCTURED_GRID

POINTS 3648 double
0 0 0
0.214286 0 0
0 0.25 0
0.214286 0.25 0
0 0.25 0
0.214286 0.25 0
0 0.5 0
0.214286 0.5 0
0.214286 0 0
0.428571 0 0
0.214286 0.25 0
0.428571 0.25 0
0.214286 0.25 0
0.428571 0.25 0
0.214286 0.5 0
0.428571 0.5 0
0.428571 0 0
0.642857 0 0
0.428571 0.25 0
0.642857 0.25 0
0.428571 0.25 0
0.642857 0.25 0
0.428571 0.5 0
0.642857 0.5 0
0.428571 0.5 0
0.642857 0.5 0
0.428571 0.75 0
0.642857 0.75 0
0.642857 0 0
0.857143 0 0
0.642857 0.25 0
0.857143 0.25 0
0.642857 0.25 0
0.857143 0.25 0
0.642857 0.5 0
0.857143 0.5 0
0.642857 0.5 0
0.857143 0.5 0
0.642857 0.75 0
0.857143 0.75 0
0.857143 0 0
1.07143 0 0
0.857143 0.25 0
1.07143 0.25 0
0.857143 0.25 0
1.07143 0.25 0
0.857143 0.5 0
1.07143 0.5 0
0.857143 0.5 0
1.07143 0.5 0
0.857143 0.75 0
1.07143 0.75 0
1.07143 0 0
1.28571 0 0
1.07143 0.25 0
1.28571 0.25 0
1.07143 0.25 0
1.28571 0.25 0
1.07143 0.5 0
1.28571 0.5 0
1.07143 0.5 0
1.28571 0.5 0
1.07143 0.75 0
1.28571 0.75 0
1.28571 0 0
1.5 0 0
1.28571 0.25 0
1.5 0.25 0
1.28571 0.25 0
1.5 0.25 0
1.28571 0.5 0
1.5 0.5 0
1.5 0 0
1.71429 0 0
1.5 0.25 0
1.71429 0.25 0
1.5 0.25 0
1.71429 0.25 0
1.5 0.5 0
1.71429 0.5 0
1.71429 0 0
1.92857 0 0
1.71429 0.25 0
1.92857 0.25 0
1.71429 0.25 0
1.92857 0.25 0
1.71429 0.5 0
1.92857 0.5 0
1.92857 0 0
2.14286 0 0
1.92857 0.25 0
2.14286 0.25 0
1.92857 0.25 0
2.14286 0.25 0
1.92857 0.5 0
2.14286 0.5 0
0 3 0
0 2.75 0
0.214286 3 0
0.214286 2.75 0
0.214286 3 0
0.214286 2.75 0
0.428571 3 0
0.428571 2.75 0
0.428571 3 0
0.428571 2.75 0
0.642857 3 0
0.642857 2.75 0
0.642857 3 0
0.642857 2.75 0
0.857143 3 0
0.857143 2.75 0
0.857143 3 0
0.857143 2.75 0
1.07143 3 0
1.07143 2.75 0
1.07143 3 0
1.07143 2.75 0
1.28571 3 0
1.28571 2.75 0
1.28571 3 0
1.28571 2.75 0
1.5 3 0
1.5 2.75 0
1.5 3 0
1.5 2.75 0
1.71429 3 0
1.71429 2.75 0
1.71429 3 0
1.71429 2.75 0
1.92857 3 0
1.92857 2.75 0
1.92857 3 0
1.92857 2.75 0
2.14286 3 0
2.14286 2.75 0
0 2.75 0
0 2.5 0
0.214286 2.75 0
0.214286 2.5 0
0.214286 2.75 0
0.214286 2.5 0
0.428571 2.75 0
0.428571 2.5 0
0.428571 2.75 0
0.428571 2.5 0
0.642857 2.75 0
0.642857 2.5 0
0.642857 2.75 0
0.642857 2.5 0
0.857143 2.75 0
0.857143 2.5 0
0.857143 2.75 0
0.857143 2.5 0
1.07143 2.75 0
1.07143 2.5 0
1.07143 2.75 0
1.07143 2.5 0
1.28571 2.75 0
1.28571 2.5 0
1.28571 2.75 0
1.28571 2.5 0
1.5 2.75 0
1.5 2.5 0
1.5 2.75 0
1.5 2.5 0
1.71429 2.75 0
1.71429 2.5 0
1.71429 2.75 0
1.71429 2.5 0
1.92857 2.75 0
1.92857 2.5 0
1.92857 2.75 0
1.92857 2.5 0
2.14286 2.75 0
2.14286 2.5 0
0.428571 2.5 0
0.428571 2.25 0
0.642857 2.5 0
0.642857 2.25 0
0.642857 2.5 0
0.642857 2.25 0
0.857143 2.5 0
0.857143 2.25 0
0.857143 2.5 0
0.857143 2.25 0
1.07143 2.5 0
1.07143 2.25 0
1.07143 2.5 0
1.07143 2.25 0
1.28571 2.5 0
1.28571 2.25 0
0.214286 0.75 0
0.321429 0.75 0
0.214286 0.875 0
0.321429 0.875 0
0.321429 0.75 0
0.428571 0.75 0
0.321429 0.875 0
0.428571 0.875 0
0.214286 0.875 0
0.321429 0.875 0
0.214286 1 0
0.321429 1 0
0.321429 0.875 0
0.428571 0.875 0
0.321429 1 0
0.428571 1 0
0.428571 0.75 0
0.535714 0.75 0
0.428571 0.875 0
0.535714 0.875 0
0.535714 0.75 0
0.642857 0.75 0
0.535714 0.875 0
0.642857 0.875 0
0.428571 0.875 0
0.535714 0.875 0
0.428571 1 0
0.535714 1 0
0.535714 0.875 0
0.642857 0.875 0
0.535714 1 0
0.642857 1 0
0.642857 0.75 0
0.75 0.75 0
0.642857 0.875 0
0.75 0.875 0
0.75 0.75 0
0.857143 0.75 0
0.75 0.875 0
0.857143 0.875 0
0.642857 0.875 0
0.75 0.875 0
0.642857 1 0
0.75 1 0
0.75 0.875 0
0.857143 0.875 0
0.75 1 0
0.857143 1 0
0.857143 0.75 0
0.964286 0.75 0
0.857143 0.875 0
0.964286 0.875 0
0.964286 0.75 0
1.07143 0.75 0
0.964286 0.875 0
1.07143 0.875 0
0.857143 0.875 0
0.964286 0.875 0
0.857143 1 0
0.964286 1 0
0.964286 0.875 0
1.07143 0.875 0
0.964286 1 0
1.07143 1 0
1.07143 0.75 0
1.17857 0.75 0
1.07143 0.875 0
1.17857 0.875 0
1.17857 0.75 0
1.28571 0.75 0
1.17857 0.875 0
1.28571 0.875 0
1.07143 0.875 0
1.17857 0.875 0
1.07143 1 0
1.17857 1 0
1.17857 0.875 0
1.28571 0.875 0
1.17857 1 0
1.28571 1 0
0.214286 2 0
0.214286 1.875 0
0.321429 2 0
0.321429 1.875 0
0.214286 1.875 0
0.214286 1.75 0
0.321429 1.875 0
0.321429 1.75 0
0.321429 2 0
0.321429 1.875 0
0.428571 2 0
0.428571 1.875 0
0.321429 1.875 0
0.321429 1.75 0
0.428571 1.875 0
0.428571 1.75 0
0.428571 2 0
0.428571 1.875 0
0.535714 2 0
0.535714 1.875 0
0.428571 1.875 0
0.428571 1.75 0
0.535714 1.875 0
0.535714 1.75 0
0.535714 2 0
0.535714 1.875 0
0.642857 2 0
0.642857 1.875 0
0.535714 1.875 0
0.535714 1.75 0
0.642857 1.875 0
0.642857 1.75 0
0.642857 2 0
0.642857 1.875 0
0.75 2 0
0.75 1.875 0
0.642857 1.875 0
0.642857 1.75 0
0.75 1.875 0
0.75 1.75 0
0.75 2 0
0.75 1.875 0
0.857143 2 0
0.857143 1.875 0
0.75 1.875 0
0.75 1.75 0
0.857143 1.875 0
0.857143 1.75 0
0.857143 2 0
0.857143 1.875 0
0.964286 2 0
0.964286 1.875 0
0.857143 1.875 0
0.857143 1.75 0
0.964286 1.875 0
0.964286 1.75 0
0.964286 2 0
0.964286 1.875 0
1.07143 2 0
1.07143 1.875 0
0.964286 1.875 0
0.964286 1.75 0
1.07143 1.875 0
1.07143 1.75 0
1.07143 2 0
1.07143 1.875 0
1.17857 2 0
1.17857 1.875 0
1.07143 1.875 0
1.07143 1.75 0
1.17857 1.875 0
1.17857 1.75 0
1.17857 2 0
1.17857 1.875 0
1.28571 2 0
1.28571 1.875 0
1.17857 1.875 0
1.17857 1.75 0
1.28571 1.875 0
1.28571 1.75 0
0.214286 1.25 0
0.214286 1.125 0
0.321429 1.25 0
0.321429 1.125 0
0.214286 1.125 0
0.214286 1 0
0.321429 1.125 0
0.321429 1 0
0.321429 1.25 0
0.321429 1.125 0
0.428571 1.25 0
0.428571 1.125 0
0.321429 1.125 0
0.321429 1 0
0.428571 1.125 0
0.428571 1 0
0.428571 1.25 0
0.428571 1.125 0
0.535714 1.25 0
0.535714 1.125 0
0.428571 1.125 0
0.428571 1 0
0.535714 1.125 0
0.535714 1 0
0.535714 1.25 0
0.535714 1.125 0
0.642857 1.25 0
0.642857 1.125 0
0.535714 1.125 0
0.535714 1 0
0.642857 1.125 0
0.642857 1 0
0.642857 1.25 0
0.642857 1.125 0
0.75 1.25 0
0.75 1.125 0
0.642857 1.125 0
0.642857 1 0
0.75 1.125 0
0.75 1 0
0.75 1.25 0
0.75 1.125 0
0.857143 1.25 0
0.857143 1.125 0
0.75 1.125 0
0.75 1 0
0.857143 1.125 0
0.857143 1 0
0.857143 1.25 0
0.857143 1.125 0
0.964286 1.25 0
0.964286 1.125 0
0.857143 1.125 0
0.857143 1 0
0.964286 1.125 0
0.964286 1 0
0.964286 1.25 0
0.964286 1.125 0
1.07143 1.25 0
1.07143 1.125 0
0.964286 1.125 0
0.964286 1 0
1.07143 1.125 0
1.07143 1 0
1.07143 1.25 0
1.07143 1.125 0
1.17857 1.25 0
1.17857 1.125 0
1.07143 1.125 0
1.07143 1 0
1.17857 1.125 0
1.17857 1 0
1.17857 1.25 0
1.17857 1.125 0
1.28571 1.25 0
1.28571 1.125 0
1.17857 1.125 0
1.17857 1 0
1.28571 1.125 0
1.28571 1 0
0.214286 2.25 0
0.214286 2.125 0
0.321429 2.25 0
0.321429 2.125 0
0.214286 2.125 0
0.214286 2 0
0.321429 2.125 0
0.321429 2 0
0.321429 2.25 0
0.321429 2.125 0
0.428571 2.25 0
0.428571 2.125 0
0.321429 2.125 0
0.321429 2 0
0.428571 2.125 0
0.428571 2 0
0.428571 2.25 0
0.428571 2.125 0
0.535714 2.25 0
0.535714 2.125 0
0.428571 2.125 0
0.428571 2 0
0.535714 2.125 0
0.535714 2 0
0.535714 2.25 0
0.535714 2.125 0
0.642857 2.25 0
0.642857 2.125 0
0.535714 2.125 0
0.535714 2 0
0.642857 2.125 0
0.642857 2 0
0.642857 2.25 0
0.642857 2.125 0
0.75 2.25 0
0.75 2.125 0
0.642857 2.125 0
0.642857 2 0
0.75 2.125 0
0.75 2 0
0.75 2.25 0
0.75 2.125 0
0.857143 2.25 0
0.857143 2.125 0
0.75 2.125 0
0.75 2 0
0.857143 2.125 0
0.857143 2 0
0.857143 2.25 0
0.857143 2.125 0
0.964286 2.25 0
0.964286 2.125 0
0.857143 2.125 0
0.857143 2 0
0.964286 2.125 0
0.964286 2 0
0.964286 2.25 0
0.964286 2.125 0
1.07143 2.25 0
1.07143 2.125 0
0.964286 2.125 0
0.964286 2 0
1.07143 2.125 0
1.07143 2 0
1.07143 2.25 0
1.07143 2.125 0
1.17857 2.25 0
1.17857 2.125 0
1.07143 2.125 0
1.07143 2 0
1.17857 2.125 0
1.17857 2 0
1.17857 2.25 0
1.17857 2.125 0
1.28571 2.25 0
1.28571 2.125 0
1.17857 2.125 0
1.17857 2 0
1.28571 2.125 0
1.28571 2 0
0 0.5 0
0.107143 0.5 0
0 0.625 0
0.107143 0.625 0
0.107143 0.5 0
0.214286 0.5 0
0.107143 0.625 0
0.214286 0.625 0
0 0.625 0
0.107143 0.625 0
0 0.75 0
0.107143 0.75 0
0.107143 0.625 0
0.214286 0.625 0
0.107143 0.75 0
0.214286 0.75 0
0.214286 0.5 0
0.321429 0.5 0
0.214286 0.625 0
0.321429 0.625 0
0.321429 0.5 0
0.428571 0.5 0
0.321429 0.625 0
0.428571 0.625 0
0.214286 0.625 0
0.321429 0.625 0
0.214286 0.75 0
0.321429 0.75 0
0.321429 0.625 0
0.428571 0.625 0
0.321429 0.75 0
0.428571 0.75 0
1.28571 0.5 0
1.39286 0.5 0
1.28571 0.625 0
1.39286 0.625 0
1.39286 0.5 0
1.5 0.5 0
1.39286 0.625 0
1.5 0.625 0
1.28571 0.625 0
1.39286 0.625 0
1.28571 0.75 0
1.39286 0.75 0
1.39286 0.625 0
1.5 0.625 0
1.39286 0.75 0
1.5 0.75 0
1.28571 0.75 0
1.39286 0.75 0
1.28571 0.875 0
1.39286 0.875 0
1.39286 0.75 0
1.5 0.75 0
1.39286 0.875 0
1.5 0.875 0
1.28571 0.875 0
1.39286 0.875 0
1.28571 1 0
1.39286 1 0
1.39286 0.875 0
1.5 0.875 0
1.39286 1 0
1.5 1 0
1.5 0.5 0
1.60714 0.5 0
1.5 0.625 0
1.60714 0.625 0
1.60714 0.5 0
1.71429 0.5 0
1.60714 0.625 0
1.71429 0.625 0
1.5 0.625 0
1.60714 0.625 0
1.5 0.75 0
1.60714 0.75 0
1.60714 0.625 0
1.71429 0.625 0
1.60714 0.75 0
1.71429 0.75 0
1.71429 0.5 0
1.82143 0.5 0
1.71429 0.625 0
1.82143 0.625 0
1.82143 0.5 0
1.92857 0.5 0
1.82143 0.625 0
1.92857 0.625 0
1.71429 0.625 0
1.82143 0.625 0
1.71429 0.75 0
1.82143 0.75 0
1.82143 0.625 0
1.92857 0.625 0
1.82143 0.75 0
1.92857 0.75 0
1.92857 0.5 0
2.03571 0.5 0
1.92857 0.625 0
2.03571 0.625 0
2.03571 0.5 0
2.14286 0.5 0
2.03571 0.625 0
2.14286 0.625 0
1.92857 0.625 0
2.03571 0.625 0
1.92857 0.75 0
2.03571 0.75 0
2.03571 0.625 0
2.14286 0.625 0
2.03571 0.75 0
2.14286 0.75 0
2.14286 0 0
2.25 0 0
2.14286 0.125 0
2.25 0.125 0
2.25 0 0
2.35714 0 0
2.25 0.125 0
2.35714 0.125 0
2.14286 0.125 0
2.25 0.125 0
2.14286 0.25 0
2.25 0.25 0
2.25 0.125 0
2.35714 0.125 0
2.25 0.25 0
2.35714 0.25 0
2.14286 0.25 0
2.25 0.25 0
2.14286 0.375 0
2.25 0.375 0
2.25 0.25 0
2.35714 0.25 0
2.25 0.375 0
2.35714 0.375 0
2.14286 0.375 0
2.25 0.375 0
2.14286 0.5 0
2.25 0.5 0
2.25 0.375 0
2.35714 0.375 0
2.25 0.5 0
2.35714 0.5 0
2.14286 0.5 0
2.25 0.5 0
2.14286 0.625 0
2.25 0.625 0
2.25 0.5 0
2.35714 0.5 0
2.25 0.625 0
2.35714 0.625 0
2.14286 0.625 0
2.25 0.625 0
2.14286 0.75 0
2.25 0.75 0
2.25 0.625 0
2.35714 0.625 0
2.25 0.75 0
2.35714 0.75 0
2.35714 0 0
2.46429 0 0
[...]
POINT_DATA 3648
VECTORS velocity double
0 0 0
0 0 0
0 0 0
-0.0115493 0.0129974 0
0 0 0
-0.0115493 0.0129974 0
0 0 0
-0.0015991 0.0284899 0
0 0 0
0 0 0
-0.0115493 0.0129974 0
-0.0343833 0.0134212 0
-0.0115493 0.0129974 0
-0.0343833 0.0134212 0
-0.0015991 0.0284899 0
-0.00181938 0.0251863 0
0 0 0
0 0 0
-0.0343833 0.0134212 0
-0.0525523 0.00816997 0
-0.0343833 0.0134212 0
-0.0525523 0.00816997 0
-0.00181938 0.0251863 0
-0.00276727 0.0187555 0
-0.00181938 0.0251863 0
-0.00276727 0.0187555 0
0.0206824 0.0159914 0
0.0359747 0.0117464 0
0 0 0
0 0 0
-0.0525523 0.00816997 0
-0.0589019 -0.000425594 0
-0.0525523 0.00816997 0
-0.0589019 -0.000425594 0
-0.00276727 0.0187555 0
0.00315704 -0.0115942 0
-0.00276727 0.0187555 0
0.00315704 -0.0115942 0
0.0359747 0.0117464 0
0.0350295 -0.0102908 0
0 0 0
0 0 0
-0.0589019 -0.000425594 0
-0.0487031 -0.0111427 0
-0.0589019 -0.000425594 0
-0.0487031 -0.0111427 0
0.00315704 -0.0115942 0
0.00713073 -0.0163608 0
0.00315704 -0.0115942 0
0.00713073 -0.0163608 0
0.0350295 -0.0102908 0
0.0178193 -0.00126597 0
0 0 0
0 0 0
-0.0487031 -0.0111427 0
-0.00779176 -0.0388601 0
-0.0487031 -0.0111427 0
-0.00779176 -0.0388601 0
0.00713073 -0.0163608 0
-0.0201886 -0.0496614 0
0.00713073 -0.0163608 0
-0.0201886 -0.0496614 0
0.0178193 -0.00126597 0
0.00842596 -0.0225249 0
0 0 0
0 0 0
-0.00779176 -0.0388601 0
0.0724175 -0.0558616 0
-0.00779176 -0.0388601 0
0.0724175 -0.0558616 0
-0.0201886 -0.0496614 0
-0.0671017 -0.0820956 0
0 0 0
0 0 0
0.0724175 -0.0558616 0
0.0814843 0.0456133 0
0.0724175 -0.0558616 0
0.0814843 0.0456133 0
-0.0671017 -0.0820956 0
-0.0659917 0.057684 0
0 0 0
0 0 0
0.0814843 0.0456133 0
0.0278911 0.0166829 0
0.0814843 0.0456133 0
0.0278911 0.0166829 0
-0.0659917 0.057684 0
-0.0422546 0.0402391 0
0 0 0
0 0 0
0.0278911 0.0166829 0
-0.0105905 0.0269945 0
0.0278911 0.0166829 0
-0.0105905 0.0269945 0
-0.0422546 0.0402391 0
-0.0116771 0.0122214 0
0 0 0
0 0 0
0 0 0
-0.0116484 -0.0131074 0
0 0 0
-0.0116484 -0.0131074 0
0 0 0
-0.0346355 -0.0134861 0
0 0 0
-0.0346355 -0.0134861 0
0 0 0
-0.0527792 -0.00808576 0
0 0 0
-0.0527792 -0.00808576 0
0 0 0
-0.0589543 0.000534972 0
0 0 0
-0.0589543 0.000534972 0
0 0 0
-0.0486783 0.0111261 0
0 0 0
-0.0486783 0.0111261 0
0 0 0
-0.00769638 0.0389792 0
0 0 0
-0.00769638 0.0389792 0
0 0 0
0.0725508 0.0557889 0
0 0 0
0.0725508 0.0557889 0
0 0 0
0.0815591 -0.045597 0
0 0 0
0.0815591 -0.045597 0
0 0 0
0.0280263 -0.0166412 0
0 0 0
0.0280263 -0.0166412 0
0 0 0
-0.0105125 -0.0270946 0
0 0 0
0 0 0
-0.0116484 -0.0131074 0
-0.00161627 -0.0287395 0
-0.0116484 -0.0131074 0
-0.00161627 -0.0287395 0
-0.0346355 -0.0134861 0
-0.00180219 -0.0252548 0
-0.0346355 -0.0134861 0
-0.00180219 -0.0252548 0
-0.0527792 -0.00808576 0
-0.002706 -0.0185841 0
-0.0527792 -0.00808576 0
-0.002706 -0.0185841 0
-0.0589543 0.000534972 0
0.00326571 0.0118868 0
-0.0589543 0.000534972 0
0.00326571 0.0118868 0
-0.0486783 0.0111261 0
0.00730647 0.0163239 0
-0.0486783 0.0111261 0
0.00730647 0.0163239 0
-0.00769638 0.0389792 0
-0.020188 0.0496774 0
-0.00769638 0.0389792 0
-0.020188 0.0496774 0
0.0725508 0.0557889 0
-0.0671362 0.0821051 0
0.0725508 0.0557889 0
-0.0671362 0.0821051 0
0.0815591 -0.045597 0
-0.0659623 -0.0577158 0
0.0815591 -0.045597 0
-0.0659623 -0.0577158 0
0.0280263 -0.0166412 0
-0.0422587 -0.0401288 0
0.0280263 -0.0166412 0
-0.0422587 -0.0401288 0
-0.0105125 -0.0270946 0
-0.0116839 -0.0124498 0
-0.00180219 -0.0252548 0
0.0208352 -0.0160694 0
-0.002706 -0.0185841 0
0.0360689 -0.0115829 0
-0.002706 -0.0185841 0
0.0360689 -0.0115829 0
0.00326571 0.0118868 0
0.0349876 0.0104749 0
0.00326571 0.0118868 0
0.0349876 0.0104749 0
0.00730647 0.0163239 0
0.0176054 0.00119684 0
0.00730647 0.0163239 0
0.0176054 0.00119684 0
-0.020188 0.0496774 0
0.00829347 0.0224727 0
0.00660239 0.0210928 0
0.0152783 0.0227819 0
0.0034316 0.0117831 0
0.0106896 0.0133554 0
0.0152783 0.0227819 0
0.0206824 0.0159914 0
0.0106896 0.0133554 0
0.0195872 0.00892074 0
0.0034316 0.0117831 0
0.0106896 0.0133554 0
0.0520863 -0.00337523 0
0.0741788 -0.00501706 0
0.0106896 0.0133554 0
0.0195872 0.00892074 0
0.0741788 -0.00501706 0
0.0931072 -0.0049024 0
0.0206824 0.0159914 0
0.0277974 0.0133832 0
0.0195872 0.00892074 0
0.0250214 0.00606297 0
0.0277974 0.0133832 0
0.0359747 0.0117464 0
0.0250214 0.00606297 0
0.0298252 0.00426119 0
0.0195872 0.00892074 0
0.0250214 0.00606297 0
0.0931072 -0.0049024 0
0.109484 -0.00575602 0
0.0250214 0.00606297 0
0.0298252 0.00426119 0
0.109484 -0.00575602 0
0.123431 -0.00634312 0
0.0359747 0.0117464 0
0.0400486 0.0015932 0
0.0298252 0.00426119 0
0.0332699 0.000816895 0
0.0400486 0.0015932 0
0.0350295 -0.0102908 0
0.0332699 0.000816895 0
0.0329742 -0.00265771 0
0.0298252 0.00426119 0
0.0332699 0.000816895 0
0.123431 -0.00634312 0
0.135585 -0.00748247 0
0.0332699 0.000816895 0
0.0329742 -0.00265771 0
0.135585 -0.00748247 0
0.146479 -0.00750444 0
0.0350295 -0.0102908 0
0.0259985 -0.00687997 0
0.0329742 -0.00265771 0
0.0319324 -0.00238019 0
0.0259985 -0.00687997 0
0.0178193 -0.00126597 0
0.0319324 -0.00238019 0
0.035664 -0.000333778 0
0.0329742 -0.00265771 0
0.0319324 -0.00238019 0
0.146479 -0.00750444 0
0.156169 -0.00855502 0
0.0319324 -0.00238019 0
0.035664 -0.000333778 0
0.156169 -0.00855502 0
0.164328 -0.00900968 0
0.0178193 -0.00126597 0
0.0115106 -0.0102299 0
0.035664 -0.000333778 0
0.038677 -0.00698968 0
0.0115106 -0.0102299 0
0.00842596 -0.0225249 0
0.038677 -0.00698968 0
0.0312053 -0.0129135 0
0.035664 -0.000333778 0
0.038677 -0.00698968 0
0.164328 -0.00900968 0
0.171048 -0.0104206 0
0.038677 -0.00698968 0
0.0312053 -0.0129135 0
0.171048 -0.0104206 0
0.176904 -0.00784483 0
0.0520805 0.00337899 0
0.240829 0.0132678 0
0.0741936 0.00501086 0
0.233767 0.0122769 0
0.240829 0.0132678 0
0.157804 0.00658392 0
0.233767 0.0122769 0
0.153693 0.00622679 0
0.0741936 0.00501086 0
0.233767 0.0122769 0
0.093145 0.00489675 0
0.227147 0.0112097 0
0.233767 0.0122769 0
0.153693 0.00622679 0
0.227147 0.0112097 0
0.150042 0.00566593 0
0.093145 0.00489675 0
0.227147 0.0112097 0
0.109547 0.00575965 0
0.220861 0.0102107 0
0.227147 0.0112097 0
0.150042 0.00566593 0
0.220861 0.0102107 0
0.146846 0.00528825 0
0.109547 0.00575965 0
0.220861 0.0102107 0
0.123524 0.00635964 0
0.214813 0.00997197 0
0.220861 0.0102107 0
0.146846 0.00528825 0
0.214813 0.00997197 0
0.143958 0.00513902 0
0.123524 0.00635964 0
0.214813 0.00997197 0
0.135704 0.00752019 0
0.208783 0.0095372 0
0.214813 0.00997197 0
0.143958 0.00513902 0
0.208783 0.0095372 0
0.141336 0.00495433 0
0.135704 0.00752019 0
0.208783 0.0095372 0
0.146618 0.00754251 0
0.202595 0.00948175 0
0.208783 0.0095372 0
0.141336 0.00495433 0
0.202595 0.00948175 0
0.138943 0.00478601 0
0.146618 0.00754251 0
0.202595 0.00948175 0
0.156332 0.00859184 0
0.196232 0.00904533 0
0.202595 0.00948175 0
0.138943 0.00478601 0
0.196232 0.00904533 0
0.13675 0.0045638 0
0.156332 0.00859184 0
0.196232 0.00904533 0
0.164509 0.00904452 0
0.189865 0.00946762 0
0.196232 0.00904533 0
0.13675 0.0045638 0
0.189865 0.00946762 0
0.13466 0.00477464 0
0.164509 0.00904452 0
0.189865 0.00946762 0
0.17124 0.0104606 0
0.183391 0.00881688 0
0.189865 0.00946762 0
0.13466 0.00477464 0
0.183391 0.00881688 0
0.132747 0.00411555 0
0.17124 0.0104606 0
0.183391 0.00881688 0
0.177101 0.00787201 0
0.176873 0.00761807 0
0.183391 0.00881688 0
0.132747 0.00411555 0
0.176873 0.00761807 0
0.131215 0.00336117 0
0.158031 -0.00659349 0
0.240753 -0.0132678 0
0.153913 -0.00623578 0
0.233712 -0.0122816 0
0.240753 -0.0132678 0
0.0520863 -0.00337523 0
0.233712 -0.0122816 0
0.0741788 -0.00501706 0
0.153913 -0.00623578 0
0.233712 -0.0122816 0
0.150253 -0.00567163 0
0.227109 -0.0112118 0
0.233712 -0.0122816 0
0.0741788 -0.00501706 0
0.227109 -0.0112118 0
0.0931072 -0.0049024 0
0.150253 -0.00567163 0
0.227109 -0.0112118 0
0.14705 -0.00528954 0
0.220839 -0.010206 0
0.227109 -0.0112118 0
0.0931072 -0.0049024 0
0.220839 -0.010206 0
0.109484 -0.00575602 0
0.14705 -0.00528954 0
0.220839 -0.010206 0
0.144157 -0.00513575 0
0.214817 -0.00995531 0
0.220839 -0.010206 0
0.109484 -0.00575602 0
0.214817 -0.00995531 0
0.123431 -0.00634312 0
0.144157 -0.00513575 0
0.214817 -0.00995531 0
0.141531 -0.00494728 0
0.208819 -0.00951386 0
0.214817 -0.00995531 0
0.123431 -0.00634312 0
0.208819 -0.00951386 0
0.135585 -0.00748247 0
0.141531 -0.00494728 0
0.208819 -0.00951386 0
0.139135 -0.00477779 0
0.202669 -0.00945452 0
0.208819 -0.00951386 0
0.135585 -0.00748247 0
0.202669 -0.00945452 0
0.146479 -0.00750444 0
0.139135 -0.00477779 0
0.202669 -0.00945452 0
0.136936 -0.00455554 0
0.196346 -0.00902218 0
0.202669 -0.00945452 0
0.146479 -0.00750444 0
0.196346 -0.00902218 0
0.156169 -0.00855502 0
0.136936 -0.00455554 0
0.196346 -0.00902218 0
0.134838 -0.00476485 0
0.190015 -0.00944432 0
0.196346 -0.00902218 0
0.156169 -0.00855502 0
0.190015 -0.00944432 0
0.164328 -0.00900968 0
0.134838 -0.00476485 0
0.190015 -0.00944432 0
0.132915 -0.00411145 0
0.183575 -0.0088005 0
0.190015 -0.00944432 0
0.164328 -0.00900968 0
0.183575 -0.0088005 0
0.171048 -0.0104206 0
0.132915 -0.00411145 0
0.183575 -0.0088005 0
0.131371 -0.00335893 0
0.177091 -0.0076052 0
0.183575 -0.0088005 0
0.171048 -0.0104206 0
0.177091 -0.0076052 0
0.176904 -0.00784483 0
0.0067118 -0.0212821 0
0.00347867 -0.011878 0
0.0154279 -0.0229201 0
0.0108453 -0.0134154 0
0.00347867 -0.011878 0
0.0520805 0.00337899 0
0.0108453 -0.0134154 0
0.0741936 0.00501086 0
0.0154279 -0.0229201 0
0.0108453 -0.0134154 0
0.0208352 -0.0160694 0
0.019816 -0.0089888 0
0.0108453 -0.0134154 0
0.0741936 0.00501086 0
0.019816 -0.0089888 0
0.093145 0.00489675 0
0.0208352 -0.0160694 0
0.019816 -0.0089888 0
0.027904 -0.0133417 0
0.0252738 -0.00605797 0
0.019816 -0.0089888 0
0.093145 0.00489675 0
0.0252738 -0.00605797 0
0.109547 0.00575965 0
0.027904 -0.0133417 0
0.0252738 -0.00605797 0
0.0360689 -0.0115829 0
0.0299877 -0.00418009 0
0.0252738 -0.00605797 0
0.109547 0.00575965 0
0.0299877 -0.00418009 0
0.123524 0.00635964 0
0.0360689 -0.0115829 0
0.0299877 -0.00418009 0
0.0401122 -0.00142143 0
0.0333122 -0.000735806 0
0.0299877 -0.00418009 0
0.123524 0.00635964 0
0.0333122 -0.000735806 0
0.135704 0.00752019 0
0.0401122 -0.00142143 0
0.0333122 -0.000735806 0
0.0349876 0.0104749 0
0.0329364 0.00271964 0
0.0333122 -0.000735806 0
0.135704 0.00752019 0
0.0329364 0.00271964 0
0.146618 0.00754251 0
0.0349876 0.0104749 0
0.0329364 0.00271964 0
0.0258418 0.00694948 0
0.0318598 0.00240411 0
0.0329364 0.00271964 0
0.146618 0.00754251 0
0.0318598 0.00240411 0
0.156332 0.00859184 0
0.0258418 0.00694948 0
0.0318598 0.00240411 0
0.0176054 0.00119684 0
0.0356365 0.000303953 0
0.0318598 0.00240411 0
0.156332 0.00859184 0
0.0356365 0.000303953 0
0.164509 0.00904452 0
0.0176054 0.00119684 0
0.0356365 0.000303953 0
0.0113024 0.0101504 0
0.038735 0.0069814 0
0.0356365 0.000303953 0
0.164509 0.00904452 0
0.038735 0.0069814 0
0.17124 0.0104606 0
0.0113024 0.0101504 0
0.038735 0.0069814 0
0.00829347 0.0224727 0
0.0313085 0.0129305 0
0.038735 0.0069814 0
0.17124 0.0104606 0
0.0313085 0.0129305 0
0.177101 0.00787201 0
0 0 0
-0.000361373 0.014599 0
0 0 0
0.00118509 0.0138828 0
-0.000361373 0.014599 0
-0.0015991 0.0284899 0
0.00118509 0.0138828 0
0.00273855 0.0290172 0
0 0 0
0.00118509 0.0138828 0
0 0 0
9.52437e-05 0.0126655 0
0.00118509 0.0138828 0
0.00273855 0.0290172 0
9.52437e-05 0.0126655 0
0.00660239 0.0210928 0
-0.0015991 0.0284899 0
-0.00249189 0.0267823 0
0.00273855 0.0290172 0
0.00397931 0.0261003 0
-0.00249189 0.0267823 0
-0.00181938 0.0251863 0
0.00397931 0.0261003 0
0.00672822 0.0220853 0
0.00273855 0.0290172 0
0.00397931 0.0261003 0
0.00660239 0.0210928 0
0.0152783 0.0227819 0
0.00397931 0.0261003 0
0.00672822 0.0220853 0
0.0152783 0.0227819 0
0.0206824 0.0159914 0
-0.0201886 -0.0496614 0
-0.0426972 -0.067518 0
-0.00938945 -0.0300924 0
-0.0302479 -0.0365539 0
-0.0426972 -0.067518 0
-0.0671017 -0.0820956 0
-0.0302479 -0.0365539 0
-0.0613532 -0.0486218 0
-0.00938945 -0.0300924 0
-0.0302479 -0.0365539 0
0.00842596 -0.0225249 0
-0.00369578 -0.00523655 0
-0.0302479 -0.0365539 0
-0.0613532 -0.0486218 0
-0.00369578 -0.00523655 0
-0.0374472 -0.00481895 0
0.00842596 -0.0225249 0
-0.00369578 -0.00523655 0
0.0312053 -0.0129135 0
0.0291954 0.00130954 0
-0.00369578 -0.00523655 0
-0.0374472 -0.00481895 0
0.0291954 0.00130954 0
0.0460095 0.00824239 0
0.0312053 -0.0129135 0
0.0291954 0.00130954 0
0.176904 -0.00784483 0
0.181387 -0.00716539 0
0.0291954 0.00130954 0
0.0460095 0.00824239 0
0.181387 -0.00716539 0
0.18311 -0.00479145 0
-0.0671017 -0.0820956 0
-0.0799806 -0.0102991 0
-0.0613532 -0.0486218 0
-0.0755986 -0.0109729 0
-0.0799806 -0.0102991 0
-0.0659917 0.057684 0
-0.0755986 -0.0109729 0
-0.0622128 0.0259378 0
-0.0613532 -0.0486218 0
-0.0755986 -0.0109729 0
-0.0374472 -0.00481895 0
-0.0427053 -0.0311386 0
-0.0755986 -0.0109729 0
-0.0622128 0.0259378 0
-0.0427053 -0.0311386 0
-0.0386243 0.0249773 0
-0.0659917 0.057684 0
-0.0457897 0.048369 0
-0.0622128 0.0259378 0
-0.047802 0.0396361 0
-0.0457897 0.048369 0
-0.0422546 0.0402391 0
-0.047802 0.0396361 0
-0.0328489 0.0273223 0
-0.0622128 0.0259378 0
-0.047802 0.0396361 0
-0.0386243 0.0249773 0
-0.0420756 0.0282012 0
-0.047802 0.0396361 0
-0.0328489 0.0273223 0
-0.0420756 0.0282012 0
-0.0224165 -0.00153301 0
-0.0422546 0.0402391 0
-0.0372981 0.0270969 0
-0.0328489 0.0273223 0
-0.00168722 -0.00223768 0
-0.0372981 0.0270969 0
-0.0116771 0.0122214 0
-0.00168722 -0.00223768 0
0.0134801 -0.00653171 0
-0.0328489 0.0273223 0
-0.00168722 -0.00223768 0
-0.0224165 -0.00153301 0
-0.0230018 -0.00880422 0
-0.00168722 -0.00223768 0
0.0134801 -0.00653171 0
-0.0230018 -0.00880422 0
-0.0295791 -0.00968461 0
0 0 0
0 0 0
-0.00316948 0.00669577 0
-0.0382571 0.0340899 0
0 0 0
0 0 0
-0.0382571 0.0340899 0
-0.0375906 -0.0337225 0
-0.00316948 0.00669577 0
-0.0382571 0.0340899 0
-0.0105905 0.0269945 0
0.0124897 0.0277121 0
-0.0382571 0.0340899 0
-0.0375906 -0.0337225 0
0.0124897 0.0277121 0
0.0143593 -0.0295502 0
-0.0105905 0.0269945 0
0.0124897 0.0277121 0
-0.0114226 0.0369451 0
0.00708429 -0.0296552 0
0.0124897 0.0277121 0
0.0143593 -0.0295502 0
0.00708429 -0.0296552 0
-0.00365275 0.0374226 0
-0.0114226 0.0369451 0
0.00708429 -0.0296552 0
-0.0116771 0.0122214 0
-0.00639344 -0.0308255 0
0.00708429 -0.0296552 0
-0.00365275 0.0374226 0
-0.00639344 -0.0308255 0
-0.0206221 0.0668456 0
-0.0116771 0.0122214 0
-0.00639344 -0.0308255 0
0.0134801 -0.00653171 0
-0.00997566 0.00866621 0
-0.00639344 -0.0308255 0
-0.0206221 0.0668456 0
-0.00997566 0.00866621 0
-0.0206565 0.0558709 0
0.0134801 -0.00653171 0
-0.00997566 0.00866621 0
-0.0295791 -0.00968461 0
-0.0111525 0.0175746 0
-0.00997566 0.00866621 0
-0.0206565 0.0558709 0
-0.0111525 0.0175746 0
0.00999885 0.0349417 0
0 0 0
0 0 0
-0.0375906 -0.0337225 0
-0.0184779 0.0103183 0
0 0 0
0 0 0
-0.0184779 0.0103183 0
-0.0233474 -0.0037416 0
-0.0375906 -0.0337225 0
-0.0184779 0.0103183 0
0.0143593 -0.0295502 0
-0.0293912 0.0337125 0
-0.0184779 0.0103183 0
-0.0233474 -0.0037416 0
-0.0293912 0.0337125 0
-0.0442853 -0.00238924 0
0.0143593 -0.0295502 0
-0.0293912 0.0337125 0
-0.00365275 0.0374226 0
-0.0283945 0.0465181 0
-0.0293912 0.0337125 0
-0.0442853 -0.00238924 0
-0.0283945 0.0465181 0
-0.0267692 0.00117053 0
-0.00365275 0.0374226 0
-0.0283945 0.0465181 0
-0.0206221 0.0668456 0
-0.00350641 0.0258991 0
-0.0283945 0.0465181 0
-0.0267692 0.00117053 0
-0.00350641 0.0258991 0
0.0179411 -0.00501219 0
-0.0206221 0.0668456 0
-0.00350641 0.0258991 0
-0.0206565 0.0558709 0
-0.0160706 0.0114301 0
-0.00350641 0.0258991 0
0.0179411 -0.00501219 0
-0.0160706 0.0114301 0
-0.0159125 -0.0155916 0
-0.0206565 0.0558709 0
-0.0160706 0.0114301 0
0.00999885 0.0349417 0
0.0206872 0.0141221 0
-0.0160706 0.0114301 0
-0.0159125 -0.0155916 0
0.0206872 0.0141221 0
0.00601061 -0.00145165 0
0 0 0
0 0 0
-0.0233474 -0.0037416 0
-0.0171205 -0.00409743 0
0 0 0
0 0 0
-0.0171205 -0.00409743 0
-0.00413616 -0.0107754 0
-0.0233474 -0.0037416 0
-0.0171205 -0.00409743 0
-0.0442853 -0.00238924 0
-0.0422567 -0.0157691 0
-0.0171205 -0.00409743 0
-0.00413616 -0.0107754 0
-0.0422567 -0.0157691 0
-0.0286568 -0.0295888 0
-0.0442853 -0.00238924 0
-0.0422567 -0.0157691 0
-0.0267692 0.00117053 0
-0.0303283 -0.0178955 0
-0.0422567 -0.0157691 0
-0.0286568 -0.0295888 0
-0.0303283 -0.0178955 0
-0.0309789 -0.0425079 0
-0.0267692 0.00117053 0
-0.0303283 -0.0178955 0
0.0179411 -0.00501219 0
0.0100923 0.00113356 0
-0.0303283 -0.0178955 0
-0.0309789 -0.0425079 0
0.0100923 0.00113356 0
-0.0107888 -0.0364934 0
0.0179411 -0.00501219 0
0.0100923 0.00113356 0
-0.0159125 -0.0155916 0
-0.00401842 0.00696532 0
0.0100923 0.00113356 0
-0.0107888 -0.0364934 0
-0.00401842 0.00696532 0
-0.000678208 -0.0218993 0
-0.0159125 -0.0155916 0
-0.00401842 0.00696532 0
0.00601061 -0.00145165 0
0.00178741 -0.0168247 0
-0.00401842 0.00696532 0
-0.000678208 -0.0218993 0
0.00178741 -0.0168247 0
0.0028478 -0.00346184 0
0 0 0
0 0 0
-0.00413616 -0.0107754 0
0.00263325 0.00289735 0
0 0 0
0 0 0
0.00263325 0.00289735 0
0 0 0
-0.00413616 -0.0107754 0
0.00263325 0.00289735 0
-0.0286568 -0.0295888 0
-0.0107768 -0.00689223 0
0.00263325 0.00289735 0
0 0 0
-0.0107768 -0.00689223 0
0 0 0
-0.0286568 -0.0295888 0
-0.0107768 -0.00689223 0
-0.0309789 -0.0425079 0
-0.013295 -0.0355271 0
-0.0107768 -0.00689223 0
0 0 0
-0.013295 -0.0355271 0
0 0 0
-0.0309789 -0.0425079 0
-0.013295 -0.0355271 0
-0.0107888 -0.0364934 0
-0.00997383 -0.0629603 0
-0.013295 -0.0355271 0
0 0 0
-0.00997383 -0.0629603 0
0 0 0
-0.0107888 -0.0364934 0
-0.00997383 -0.0629603 0
-0.000678208 -0.0218993 0
-0.00205719 -0.0771414 0
-0.00997383 -0.0629603 0
0 0 0
-0.00205719 -0.0771414 0
0 0 0
-0.000678208 -0.0218993 0
-0.00205719 -0.0771414 0
0.0028478 -0.00346184 0
-0.00527878 -0.0857063 0
-0.00205719 -0.0771414 0
0 0 0
-0.00527878 -0.0857063 0
0 0 0
0.177101 0.00787201 0
0.176873 0.00761807 0
0.181589 0.00719425 0
0.171386 0.0057662 0
0.176873 0.00761807 0
0.131215 0.00336117 0
0.171386 0.0057662 0
0.130052 0.0026154 0
0.181589 0.00719425 0
0.171386 0.0057662 0
0.183303 0.00480554 0
0.168075 0.0037624 0
0.171386 0.0057662 0
0.130052 0.0026154 0
0.168075 0.0037624 0
0.128929 0.00184764 0
0.165866 0.006802 0
0.107356 0.00597907 0
0.16183 0.00665227 0
0.109932 0.00578509 0
0.107356 0.00597907 0
0.227693 2.36257e-06 0
0.109932 0.00578509 0
0.215095 2.23554e-06 0
0.16183 0.00665227 0
0.109932 0.00578509 0
0.157804 0.00658392 0
0.112073 0.00528792 0
0.109932 0.00578509 0
0.215095 2.23554e-06 0
0.112073 0.00528792 0
0.203595 2.30056e-06 0
0.157804 0.00658392 0
0.112073 0.00528792 0
0.153693 0.00622679 0
0.114038 0.00503743 0
0.112073 0.00528792 0
0.203595 2.30056e-06 0
0.114038 0.00503743 0
0.193003 2.37985e-06 0
0.153693 0.00622679 0
0.114038 0.00503743 0
0.150042 0.00566593 0
0.115745 0.00456031 0
0.114038 0.00503743 0
0.193003 2.37985e-06 0
0.115745 0.00456031 0
0.183306 3.13512e-06 0
0.150042 0.00566593 0
0.115745 0.00456031 0
0.146846 0.00528825 0
0.117166 0.00432715 0
0.115745 0.00456031 0
0.183306 3.13512e-06 0
0.117166 0.00432715 0
0.174524 3.8999e-06 0
0.146846 0.00528825 0
0.117166 0.00432715 0
0.143958 0.00513902 0
0.118268 0.00392171 0
0.117166 0.00432715 0
0.174524 3.8999e-06 0
0.118268 0.00392171 0
0.166652 4.67238e-06 0
0.143958 0.00513902 0
0.118268 0.00392171 0
0.141336 0.00495433 0
0.119009 0.0038664 0
0.118268 0.00392171 0
0.166652 4.67238e-06 0
0.119009 0.0038664 0
0.159598 5.39374e-06 0
0.141336 0.00495433 0
0.119009 0.0038664 0
0.138943 0.00478601 0
0.1194 0.00345005 0
0.119009 0.0038664 0
0.159598 5.39374e-06 0
0.1194 0.00345005 0
0.153225 5.52005e-06 0
0.138943 0.00478601 0
0.1194 0.00345005 0
0.13675 0.0045638 0
0.11944 0.0034684 0
0.1194 0.00345005 0
0.153225 5.52005e-06 0
0.11944 0.0034684 0
0.147515 6.79001e-06 0
0.13675 0.0045638 0
0.11944 0.0034684 0
0.13466 0.00477464 0
0.119196 0.00310636 0
0.11944 0.0034684 0
0.147515 6.79001e-06 0
0.119196 0.00310636 0
0.142479 6.66039e-06 0
0.13466 0.00477464 0
0.119196 0.00310636 0
0.132747 0.00411555 0
0.118819 0.00310549 0
0.119196 0.00310636 0
0.142479 6.66039e-06 0
0.118819 0.00310549 0
0.137965 4.83074e-06 0
0.132747 0.00411555 0
0.118819 0.00310549 0
0.131215 0.00336117 0
0.118486 0.00237325 0