# vtk DataFile Version 3.0
#This file was generated by the deal.II library on 2026/3/26 at 11:21:47
ASCII
DATASET UNSTRUCTURED_GRID

POINTS 3648 double
0 0 0
0.214286 0 0
0 0.25 0
0.214286 0.25 0
0 0.25 0
0.214286 0.25 0
0 0.5 0
0.214286 0.5 0
0.214286 0 0
0.428571 0 0
0.214286 0.25 0
0.428571 0.25 0
0.214286 0.25 0
0.428571 0.25 0
0.214286 0.5 0
0.428571 0.5 0
0.428571 0 0
0.642857 0 0
0.428571 0.25 0
0.642857 0.25 0
0.428571 0.25 0
0.642857 0.25 0
0.428571 0.5 0
0.642857 0.5 0
0.428571 0.5 0
0.642857 0.5 0
0.428571 0.75 0
0.642857 0.75 0
0.642857 0 0
0.857143 0 0
0.642857 0.25 0
0.857143 0.25 0
0.642857 0.25 0
0.857143 0.25 0
0.642857 0.5 0
0.857143 0.5 0
0.642857 0.5 0
0.857143 0.5 0
0.642857 0.75 0
0.857143 0.75 0
0.857143 0 0
1.07143 0 0
0.857143 0.25 0
1.07143 0.25 0
0.857143 0.25 0
1.07143 0.25 0
0.857143 0.5 0
1.07143 0.5 0
0.857143 0.5 0
1.07143 0.5 0
0.857143 0.75 0
1.07143 0.75 0
1.07143 0 0
1.28571 0 0
1.07143 0.25 0
1.28571 0.25 0
1.07143 0.25 0
1.28571 0.25 0
1.07143 0.5 0
1.28571 0.5 0
1.07143 0.5 0
1.28571 0.5 0
1.07143 0.75 0
1.28571 0.75 0
1.28571 0 0
1.5 0 0
1.28571 0.25 0
1.5 0.25 0
1.28571 0.25 0
1.5 0.25 0
1.28571 0.5 0
1.5 0.5 0
1.5 0 0
1.71429 0 0
1.5 0.25 0
1.71429 0.25 0
1.5 0.25 0
1.71429 0.25 0
1.5 0.5 0
1.71429 0.5 0
1.71429 0 0
1.92857 0 0
1.71429 0.25 0
1.92857 0.25 0
1.71429 0.25 0
1.92857 0.25 0
1.71429 0.5 0
1.92857 0.5 0
1.92857 0 0
2.14286 0 0
1.92857 0.25 0
2.14286 0.25 0
1.92857 0.25 0
2.14286 0.25 0
1.92857 0.5 0
2.14286 0.5 0
0 3 0
0 2.75 0
0.214286 3 0
0.214286 2.75 0
0.214286 3 0
0.214286 2.75 0
0.428571 3 0
0.428571 2.75 0
0.428571 3 0
0.428571 2.75 0
0.642857 3 0
0.642857 2.75 0
0.642857 3 0
0.642857 2.75 0
0.857143 3 0
0.857143 2.75 0
0.857143 3 0
0.857143 2.75 0
1.07143 3 0
1.07143 2.75 0
1.07143 3 0
1.07143 2.75 0
1.28571 3 0
1.28571 2.75 0
1.28571 3 0
1.28571 2.75 0
1.5 3 0
1.5 2.75 0
1.5 3 0
1.5 2.75 0
1.71429 3 0
1.71429 2.75 0
1.71429 3 0
1.71429 2.75 0
1.92857 3 0
1.92857 2.75 0
1.92857 3 0
1.92857 2.75 0
2.14286 3 0
2.14286 2.75 0
0 2.75 0
0 2.5 0
0.214286 2.75 0
0.214286 2.5 0
0.214286 2.75 0
0.214286 2.5 0
0.428571 2.75 0
0.428571 2.5 0
0.428571 2.75 0
0.428571 2.5 0
0.642857 2.75 0
0.642857 2.5 0
0.642857 2.75 0
0.642857 2.5 0
0.857143 2.75 0
0.857143 2.5 0
0.857143 2.75 0
0.857143 2.5 0
1.07143 2.75 0
1.07143 2.5 0
1.07143 2.75 0
1.07143 2.5 0
1.28571 2.75 0
1.28571 2.5 0
1.28571 2.75 0
1.28571 2.5 0
1.5 2.75 0
1.5 2.5 0
1.5 2.75 0
1.5 2.5 0
1.71429 2.75 0
1.71429 2.5 0
1.71429 2.75 0
1.71429 2.5 0
1.92857 2.75 0
1.92857 2.5 0
1.92857 2.75 0
1.92857 2.5 0
2.14286 2.75 0
2.14286 2.5 0
0.428571 2.5 0
0.428571 2.25 0
0.642857 2.5 0
0.642857 2.25 0
0.642857 2.5 0
0.642857 2.25 0
0.857143 2.5 0
0.857143 2.25 0
0.857143 2.5 0
0.857143 2.25 0
1.07143 2.5 0
1.07143 2.25 0
1.07143 2.5 0
1.07143 2.25 0
1.28571 2.5 0
1.28571 2.25 0
0.214286 0.75 0
0.321429 0.75 0
0.214286 0.875 0
0.321429 0.875 0
0.321429 0.75 0
0.428571 0.75 0
0.321429 0.875 0
0.428571 0.875 0
0.214286 0.875 0
0.321429 0.875 0
0.214286 1 0
0.321429 1 0
0.321429 0.875 0
0.428571 0.875 0
0.321429 1 0
0.428571 1 0
0.428571 0.75 0
0.535714 0.75 0
0.428571 0.875 0
0.535714 0.875 0
0.535714 0.75 0
0.642857 0.75 0
0.535714 0.875 0
0.642857 0.875 0
0.428571 0.875 0
0.535714 0.875 0
0.428571 1 0
0.535714 1 0
0.535714 0.875 0
0.642857 0.875 0
0.535714 1 0
0.642857 1 0
0.642857 0.75 0
0.75 0.75 0
0.642857 0.875 0
0.75 0.875 0
0.75 0.75 0
0.857143 0.75 0
0.75 0.875 0
0.857143 0.875 0
0.642857 0.875 0
0.75 0.875 0
0.642857 1 0
0.75 1 0
0.75 0.875 0
0.857143 0.875 0
0.75 1 0
0.857143 1 0
0.857143 0.75 0
0.964286 0.75 0
0.857143 0.875 0
0.964286 0.875 0
0.964286 0.75 0
1.07143 0.75 0
0.964286 0.875 0
1.07143 0.875 0
0.857143 0.875 0
0.964286 0.875 0
0.857143 1 0
0.964286 1 0
0.964286 0.875 0
1.07143 0.875 0
0.964286 1 0
1.07143 1 0
1.07143 0.75 0
1.17857 0.75 0
1.07143 0.875 0
1.17857 0.875 0
1.17857 0.75 0
1.28571 0.75 0
1.17857 0.875 0
1.28571 0.875 0
1.07143 0.875 0
1.17857 0.875 0
1.07143 1 0
1.17857 1 0
1.17857 0.875 0
1.28571 0.875 0
1.17857 1 0
1.28571 1 0
0.214286 2 0
0.214286 1.875 0
0.321429 2 0
0.321429 1.875 0
0.214286 1.875 0
0.214286 1.75 0
0.321429 1.875 0
0.321429 1.75 0
0.321429 2 0
0.321429 1.875 0
0.428571 2 0
0.428571 1.875 0
0.321429 1.875 0
0.321429 1.75 0
0.428571 1.875 0
0.428571 1.75 0
0.428571 2 0
0.428571 1.875 0
0.535714 2 0
0.535714 1.875 0
0.428571 1.875 0
0.428571 1.75 0
0.535714 1.875 0
0.535714 1.75 0
0.535714 2 0
0.535714 1.875 0
0.642857 2 0
0.642857 1.875 0
0.535714 1.875 0
0.535714 1.75 0
0.642857 1.875 0
0.642857 1.75 0
0.642857 2 0
0.642857 1.875 0
0.75 2 0
0.75 1.875 0
0.642857 1.875 0
0.642857 1.75 0
0.75 1.875 0
0.75 1.75 0
0.75 2 0
0.75 1.875 0
0.857143 2 0
0.857143 1.875 0
0.75 1.875 0
0.75 1.75 0
0.857143 1.875 0
0.857143 1.75 0
0.857143 2 0
0.857143 1.875 0
0.964286 2 0
0.964286 1.875 0
0.857143 1.875 0
0.857143 1.75 0
0.964286 1.875 0
0.964286 1.75 0
0.964286 2 0
0.964286 1.875 0
1.07143 2 0
1.07143 1.875 0
0.964286 1.875 0
0.964286 1.75 0
1.07143 1.875 0
1.07143 1.75 0
1.07143 2 0
1.07143 1.875 0
1.17857 2 0
1.17857 1.875 0
1.07143 1.875 0
1.07143 1.75 0
1.17857 1.875 0
1.17857 1.75 0
1.17857 2 0
1.17857 1.875 0
1.28571 2 0
1.28571 1.875 0
1.17857 1.875 0
1.17857 1.75 0
1.28571 1.875 0
1.28571 1.75 0
0.214286 1.25 0
0.214286 1.125 0
0.321429 1.25 0
0.321429 1.125 0
0.214286 1.125 0
0.214286 1 0
0.321429 1.125 0
0.321429 1 0
0.321429 1.25 0
0.321429 1.125 0
0.428571 1.25 0
0.428571 1.125 0
0.321429 1.125 0
0.321429 1 0
0.428571 1.125 0
0.428571 1 0
0.428571 1.25 0
0.428571 1.125 0
0.535714 1.25 0
0.535714 1.125 0
0.428571 1.125 0
0.428571 1 0
0.535714 1.125 0
0.535714 1 0
0.535714 1.25 0
0.535714 1.125 0
0.642857 1.25 0
0.642857 1.125 0
0.535714 1.125 0
0.535714 1 0
0.642857 1.125 0
0.642857 1 0
0.642857 1.25 0
0.642857 1.125 0
0.75 1.25 0
0.75 1.125 0
0.642857 1.125 0
0.642857 1 0
0.75 1.125 0
0.75 1 0
0.75 1.25 0
0.75 1.125 0
0.857143 1.25 0
0.857143 1.125 0
0.75 1.125 0
0.75 1 0
0.857143 1.125 0
0.857143 1 0
0.857143 1.25 0
0.857143 1.125 0
0.964286 1.25 0
0.964286 1.125 0
0.857143 1.125 0
0.857143 1 0
0.964286 1.125 0
0.964286 1 0
0.964286 1.25 0
0.964286 1.125 0
1.07143 1.25 0
1.07143 1.125 0
0.964286 1.125 0
0.964286 1 0
1.07143 1.125 0
1.07143 1 0
1.07143 1.25 0
1.07143 1.125 0
1.17857 1.25 0
1.17857 1.125 0
1.07143 1.125 0
1.07143 1 0
1.17857 1.125 0
1.17857 1 0
1.17857 1.25 0
1.17857 1.125 0
1.28571 1.25 0
1.28571 1.125 0
1.17857 1.125 0
1.17857 1 0
1.28571 1.125 0
1.28571 1 0
0.214286 2.25 0
0.214286 2.125 0
0.321429 2.25 0
0.321429 2.125 0
0.214286 2.125 0
0.214286 2 0
0.321429 2.125 0
0.321429 2 0
0.321429 2.25 0
0.321429 2.125 0
0.428571 2.25 0
0.428571 2.125 0
0.321429 2.125 0
0.321429 2 0
0.428571 2.125 0
0.428571 2 0
0.428571 2.25 0
0.428571 2.125 0
0.535714 2.25 0
0.535714 2.125 0
0.428571 2.125 0
0.428571 2 0
0.535714 2.125 0
0.535714 2 0
0.535714 2.25 0
0.535714 2.125 0
0.642857 2.25 0
0.642857 2.125 0
0.535714 2.125 0
0.535714 2 0
0.642857 2.125 0
0.642857 2 0
0.642857 2.25 0
0.642857 2.125 0
0.75 2.25 0
0.75 2.125 0
0.642857 2.125 0
0.642857 2 0
0.75 2.125 0
0.75 2 0
0.75 2.25 0
0.75 2.125 0
0.857143 2.25 0
0.857143 2.125 0
0.75 2.125 0
0.75 2 0
0.857143 2.125 0
0.857143 2 0
0.857143 2.25 0
0.857143 2.125 0
0.964286 2.25 0
0.964286 2.125 0
0.857143 2.125 0
0.857143 2 0
0.964286 2.125 0
0.964286 2 0
0.964286 2.25 0
0.964286 2.125 0
1.07143 2.25 0
1.07143 2.125 0
0.964286 2.125 0
0.964286 2 0
1.07143 2.125 0
1.07143 2 0
1.07143 2.25 0
1.07143 2.125 0
1.17857 2.25 0
1.17857 2.125 0
1.07143 2.125 0
1.07143 2 0
1.17857 2.125 0
1.17857 2 0
1.17857 2.25 0
1.17857 2.125 0
1.28571 2.25 0
1.28571 2.125 0
1.17857 2.125 0
1.17857 2 0
1.28571 2.125 0
1.28571 2 0
0 0.5 0
0.107143 0.5 0
0 0.625 0
0.107143 0.625 0
0.107143 0.5 0
0.214286 0.5 0
0.107143 0.625 0
0.214286 0.625 0
0 0.625 0
0.107143 0.625 0
0 0.75 0
0.107143 0.75 0
0.107143 0.625 0
0.214286 0.625 0
0.107143 0.75 0
0.214286 0.75 0
0.214286 0.5 0
0.321429 0.5 0
0.214286 0.625 0
0.321429 0.625 0
0.321429 0.5 0
0.428571 0.5 0
0.321429 0.625 0
0.428571 0.625 0
0.214286 0.625 0
0.321429 0.625 0
0.214286 0.75 0
0.321429 0.75 0
0.321429 0.625 0
0.428571 0.625 0
0.321429 0.75 0
0.428571 0.75 0
1.28571 0.5 0
1.39286 0.5 0
1.28571 0.625 0
1.39286 0.625 0
1.39286 0.5 0
1.5 0.5 0
1.39286 0.625 0
1.5 0.625 0
1.28571 0.625 0
1.39286 0.625 0
1.28571 0.75 0
1.39286 0.75 0
1.39286 0.625 0
1.5 0.625 0
1.39286 0.75 0
1.5 0.75 0
1.28571 0.75 0
1.39286 0.75 0
1.28571 0.875 0
1.39286 0.875 0
1.39286 0.75 0
1.5 0.75 0
1.39286 0.875 0
1.5 0.875 0
1.28571 0.875 0
1.39286 0.875 0
1.28571 1 0
1.39286 1 0
1.39286 0.875 0
1.5 0.875 0
1.39286 1 0
1.5 1 0
1.5 0.5 0
1.60714 0.5 0
1.5 0.625 0
1.60714 0.625 0
1.60714 0.5 0
1.71429 0.5 0
1.60714 0.625 0
1.71429 0.625 0
1.5 0.625 0
1.60714 0.625 0
1.5 0.75 0
1.60714 0.75 0
1.60714 0.625 0
1.71429 0.625 0
1.60714 0.75 0
1.71429 0.75 0
1.71429 0.5 0
1.82143 0.5 0
1.71429 0.625 0
1.82143 0.625 0
1.82143 0.5 0
1.92857 0.5 0
1.82143 0.625 0
1.92857 0.625 0
1.71429 0.625 0
1.82143 0.625 0
1.71429 0.75 0
1.82143 0.75 0
1.82143 0.625 0
1.92857 0.625 0
1.82143 0.75 0
1.92857 0.75 0
1.92857 0.5 0
2.03571 0.5 0
1.92857 0.625 0
2.03571 0.625 0
2.03571 0.5 0
2.14286 0.5 0
2.03571 0.625 0
2.14286 0.625 0
1.92857 0.625 0
2.03571 0.625 0
1.92857 0.75 0
2.03571 0.75 0
2.03571 0.625 0
2.14286 0.625 0
2.03571 0.75 0
2.14286 0.75 0
2.14286 0 0
2.25 0 0
2.14286 0.125 0
2.25 0.125 0
2.25 0 0
2.35714 0 0
2.25 0.125 0
2.35714 0.125 0
2.14286 0.125 0
2.25 0.125 0
2.14286 0.25 0
2.25 0.25 0
2.25 0.125 0
2.35714 0.125 0
2.25 0.25 0
2.35714 0.25 0
2.14286 0.25 0
2.25 0.25 0
2.14286 0.375 0
2.25 0.375 0
2.25 0.25 0
2.35714 0.25 0
2.25 0.375 0
2.35714 0.375 0
2.14286 0.375 0
2.25 0.375 0
2.14286 0.5 0
2.25 0.5 0
2.25 0.375 0
2.35714 0.375 0
2.25 0.5 0
2.35714 0.5 0
2.14286 0.5 0
2.25 0.5 0
2.14286 0.625 0
2.25 0.625 0
2.25 0.5 0
2.35714 0.5 0
2.25 0.625 0
2.35714 0.625 0
2.14286 0.625 0
2.25 0.625 0
2.14286 0.75 0
2.25 0.75 0
2.25 0.625 0
2.35714 0.625 0
2.25 0.75 0
2.35714 0.75 0
2.35714 0 0
2.46429 0 0
[...]
POINT_DATA 3648
VECTORS velocity double
0 0 0
0 0 0
0 0 0
-0.0115799 0.0130304 0
0 0 0
-0.0115799 0.0130304 0
0 0 0
-0.00159584 0.0285503 0
0 0 0
0 0 0
-0.0115799 0.0130304 0
-0.0344195 0.0133955 0
-0.0115799 0.0130304 0
-0.0344195 0.0133955 0
-0.00159584 0.0285503 0
-0.00178839 0.0251029 0
0 0 0
0 0 0
-0.0344195 0.0133955 0
-0.0525025 0.00809774 0
-0.0344195 0.0133955 0
-0.0525025 0.00809774 0
-0.00178839 0.0251029 0
-0.00273292 0.0186338 0
-0.00178839 0.0251029 0
-0.00273292 0.0186338 0
0.0206796 0.0159267 0
0.0359126 0.0116753 0
0 0 0
0 0 0
-0.0525025 0.00809774 0
-0.0587618 -0.000465974 0
-0.0525025 0.00809774 0
-0.0587618 -0.000465974 0
-0.00273292 0.0186338 0
0.00321238 -0.0117236 0
-0.00273292 0.0186338 0
0.00321238 -0.0117236 0
0.0359126 0.0116753 0
0.0348748 -0.0103875 0
0 0 0
0 0 0
-0.0587618 -0.000465974 0
-0.0485688 -0.0111018 0
-0.0587618 -0.000465974 0
-0.0485688 -0.0111018 0
0.00321238 -0.0117236 0
0.00721216 -0.0162458 0
0.00321238 -0.0117236 0
0.00721216 -0.0162458 0
0.0348748 -0.0103875 0
0.0176015 -0.0011291 0
0 0 0
0 0 0
-0.0485688 -0.0111018 0
-0.00761439 -0.0389658 0
-0.0485688 -0.0111018 0
-0.00761439 -0.0389658 0
0.00721216 -0.0162458 0
-0.020224 -0.049764 0
0.00721216 -0.0162458 0
-0.020224 -0.049764 0
0.0176015 -0.0011291 0
0.00828415 -0.0226141 0
0 0 0
0 0 0
-0.00761439 -0.0389658 0
0.0726033 -0.0557609 0
-0.00761439 -0.0389658 0
0.0726033 -0.0557609 0
-0.020224 -0.049764 0
-0.0670953 -0.0820502 0
0 0 0
0 0 0
0.0726033 -0.0557609 0
0.0815883 0.0456133 0
0.0726033 -0.0557609 0
0.0815883 0.0456133 0
-0.0670953 -0.0820502 0
-0.0659663 0.0577879 0
0 0 0
0 0 0
0.0815883 0.0456133 0
0.0279668 0.0167259 0
0.0815883 0.0456133 0
0.0279668 0.0167259 0
-0.0659663 0.0577879 0
-0.0422194 0.0402185 0
0 0 0
0 0 0
0.0279668 0.0167259 0
-0.0105192 0.0269559 0
0.0279668 0.0167259 0
-0.0105192 0.0269559 0
-0.0422194 0.0402185 0
-0.0116992 0.0123164 0
0 0 0
0 0 0
0 0 0
-0.0116841 -0.0131455 0
0 0 0
-0.0116841 -0.0131455 0
0 0 0
-0.0346816 -0.0134606 0
0 0 0
-0.0346816 -0.0134606 0
0 0 0
-0.052737 -0.00801107 0
0 0 0
-0.052737 -0.00801107 0
0 0 0
-0.0588191 0.000576561 0
0 0 0
-0.0588191 0.000576561 0
0 0 0
-0.0485538 0.0110785 0
0 0 0
-0.0485538 0.0110785 0
0 0 0
-0.0075173 0.0391071 0
0 0 0
-0.0075173 0.0391071 0
0 0 0
0.0727514 0.0556807 0
0 0 0
0.0727514 0.0556807 0
0 0 0
0.0816664 -0.0456018 0
0 0 0
0.0816664 -0.0456018 0
0 0 0
0.0281102 -0.0166752 0
0 0 0
0.0281102 -0.0166752 0
0 0 0
-0.0104361 -0.0270669 0
0 0 0
0 0 0
-0.0116841 -0.0131455 0
-0.00161168 -0.0288095 0
-0.0116841 -0.0131455 0
-0.00161168 -0.0288095 0
-0.0346816 -0.0134606 0
-0.00176709 -0.02517 0
-0.0346816 -0.0134606 0
-0.00176709 -0.02517 0
-0.052737 -0.00801107 0
-0.00266477 -0.0184558 0
-0.052737 -0.00801107 0
-0.00266477 -0.0184558 0
-0.0588191 0.000576561 0
0.00333086 0.0120206 0
-0.0588191 0.000576561 0
0.00333086 0.0120206 0
-0.0485538 0.0110785 0
0.00741119 0.016209 0
-0.0485538 0.0110785 0
0.00741119 0.016209 0
-0.0075173 0.0391071 0
-0.0202212 0.0497835 0
-0.0075173 0.0391071 0
-0.0202212 0.0497835 0
0.0727514 0.0556807 0
-0.0671492 0.082058 0
0.0727514 0.0556807 0
-0.0671492 0.082058 0
0.0816664 -0.0456018 0
-0.0659401 -0.0578209 0
0.0816664 -0.0456018 0
-0.0659401 -0.0578209 0
0.0281102 -0.0166752 0
-0.0422195 -0.0400912 0
0.0281102 -0.0166752 0
-0.0422195 -0.0400912 0
-0.0104361 -0.0270669 0
-0.0117035 -0.0125677 0
-0.00176709 -0.02517 0
0.020836 -0.0160032 0
-0.00266477 -0.0184558 0
0.0360067 -0.0115074 0
-0.00266477 -0.0184558 0
0.0360067 -0.0115074 0
0.00333086 0.0120206 0
0.0348325 0.0105806 0
0.00333086 0.0120206 0
0.0348325 0.0105806 0
0.00741119 0.016209 0
0.0173731 0.00105303 0
0.00741119 0.016209 0
0.0173731 0.00105303 0
-0.0202212 0.0497835 0
0.00815456 0.0225695 0
0.00663873 0.0211266 0
0.0153156 0.0228171 0
0.00344797 0.011788 0
0.0107393 0.0133801 0
0.0153156 0.0228171 0
0.0206796 0.0159267 0
0.0107393 0.0133801 0
0.0196428 0.00890811 0
0.00344797 0.011788 0
0.0107393 0.0133801 0
0.0520348 -0.00336458 0
0.0741035 -0.00501 0
0.0107393 0.0133801 0
0.0196428 0.00890811 0
0.0741035 -0.00501 0
0.0930167 -0.00488568 0
0.0206796 0.0159267 0
0.0277603 0.0133096 0
0.0196428 0.00890811 0
0.0250313 0.00603055 0
0.0277603 0.0133096 0
0.0359126 0.0116753 0
0.0250313 0.00603055 0
0.0297862 0.00423464 0
0.0196428 0.00890811 0
0.0250313 0.00603055 0
0.0930167 -0.00488568 0
0.109382 -0.00574956 0
0.0250313 0.00603055 0
0.0297862 0.00423464 0
0.109382 -0.00574956 0
0.123315 -0.00633394 0
0.0359126 0.0116753 0
0.0399528 0.00151748 0
0.0297862 0.00423464 0
0.0331882 0.000784471 0
0.0399528 0.00151748 0
0.0348748 -0.0103875 0
0.0331882 0.000784471 0
0.0328473 -0.00267638 0
0.0297862 0.00423464 0
0.0331882 0.000784471 0
0.123315 -0.00633394 0
0.135455 -0.00747941 0
0.0331882 0.000784471 0
0.0328473 -0.00267638 0
0.135455 -0.00747941 0
0.146333 -0.00748194 0
0.0348748 -0.0103875 0
0.0257932 -0.00687679 0
0.0328473 -0.00267638 0
0.0317778 -0.00236729 0
0.0257932 -0.00687679 0
0.0176015 -0.0011291 0
0.0317778 -0.00236729 0
0.0355566 -0.000250707 0
0.0328473 -0.00267638 0
0.0317778 -0.00236729 0
0.146333 -0.00748194 0
0.156009 -0.00852747 0
0.0317778 -0.00236729 0
0.0355566 -0.000250707 0
0.156009 -0.00852747 0
0.164149 -0.00896959 0
0.0176015 -0.0011291 0
0.0113131 -0.0101844 0
0.0355566 -0.000250707 0
0.0386205 -0.00697435 0
0.0113131 -0.0101844 0
0.00828415 -0.0226141 0
0.0386205 -0.00697435 0
0.0310743 -0.0129454 0
0.0355566 -0.000250707 0
0.0386205 -0.00697435 0
0.164149 -0.00896959 0
0.170847 -0.0103922 0
0.0386205 -0.00697435 0
0.0310743 -0.0129454 0
0.170847 -0.0103922 0
0.176694 -0.00778517 0
0.0520274 0.00336762 0
0.240747 0.0132464 0
0.0741142 0.00500334 0
0.23369 0.0122558 0
0.240747 0.0132464 0
0.157773 0.00657418 0
0.23369 0.0122558 0
0.153679 0.00621916 0
0.0741142 0.00500334 0
0.23369 0.0122558 0
0.093049 0.00487813 0
0.227075 0.0111923 0
0.23369 0.0122558 0
0.153679 0.00621916 0
0.227075 0.0111923 0
0.150043 0.00565752 0
0.093049 0.00487813 0
0.227075 0.0111923 0
0.109438 0.0057518 0
0.220791 0.0101933 0
0.227075 0.0111923 0
0.150043 0.00565752 0
0.220791 0.0101933 0
0.146861 0.00528141 0
0.109438 0.0057518 0
0.220791 0.0101933 0
0.123399 0.00634882 0
0.214747 0.00996089 0
0.220791 0.0101933 0
0.146861 0.00528141 0
0.214747 0.00996089 0
0.143985 0.0051329 0
0.123399 0.00634882 0
0.214747 0.00996089 0
0.135563 0.00751548 0
0.20872 0.00952094 0
0.214747 0.00996089 0
0.143985 0.0051329 0
0.20872 0.00952094 0
0.141373 0.00494741 0
0.135563 0.00751548 0
0.20872 0.00952094 0
0.146461 0.00751681 0
0.202539 0.00946228 0
0.20872 0.00952094 0
0.141373 0.00494741 0
0.202539 0.00946228 0
0.138991 0.0047755 0
0.146461 0.00751681 0
0.202539 0.00946228 0
0.156158 0.00856107 0
0.196191 0.00901332 0
0.202539 0.00946228 0
0.138991 0.0047755 0
0.196191 0.00901332 0
0.136808 0.00455078 0
0.156158 0.00856107 0
0.196191 0.00901332 0
0.164314 0.00900085 0
0.18985 0.0094402 0
0.196191 0.00901332 0
0.136808 0.00455078 0
0.18985 0.0094402 0
0.134726 0.00476604 0
0.164314 0.00900085 0
0.18985 0.0094402 0
0.171021 0.0104296 0
0.183409 0.0087833 0
0.18985 0.0094402 0
0.134726 0.00476604 0
0.183409 0.0087833 0
0.132818 0.00410361 0
0.171021 0.0104296 0
0.183409 0.0087833 0
0.176873 0.0078073 0
0.176923 0.00758617 0
0.183409 0.0087833 0
0.132818 0.00410361 0
0.176923 0.00758617 0
0.13129 0.00334843 0
0.157969 -0.00658365 0
0.240663 -0.0132478 0
0.153867 -0.00622797 0
0.233625 -0.0122618 0
0.240663 -0.0132478 0
0.0520348 -0.00336458 0
0.233625 -0.0122618 0
0.0741035 -0.00501 0
0.153867 -0.00622797 0
0.233625 -0.0122618 0
0.150221 -0.00566332 0
0.227026 -0.0111959 0
0.233625 -0.0122618 0
0.0741035 -0.00501 0
0.227026 -0.0111959 0
0.0930167 -0.00488568 0
0.150221 -0.00566332 0
0.227026 -0.0111959 0
0.147031 -0.00528279 0
0.220759 -0.0101903 0
0.227026 -0.0111959 0
0.0930167 -0.00488568 0
0.220759 -0.0101903 0
0.109382 -0.00574956 0
0.147031 -0.00528279 0
0.220759 -0.0101903 0
0.144149 -0.00512982 0
0.214738 -0.00994574 0
0.220759 -0.0101903 0
0.109382 -0.00574956 0
0.214738 -0.00994574 0
0.123315 -0.00633394 0
0.144149 -0.00512982 0
0.214738 -0.00994574 0
0.141533 -0.00494083 0
0.208741 -0.0094995 0
0.214738 -0.00994574 0
0.123315 -0.00633394 0
0.208741 -0.0094995 0
0.135455 -0.00747941 0
0.141533 -0.00494083 0
0.208741 -0.0094995 0
0.139146 -0.0047682 0
0.202596 -0.00943737 0
0.208741 -0.0094995 0
0.135455 -0.00747941 0
0.202596 -0.00943737 0
0.146333 -0.00748194 0
0.139146 -0.0047682 0
0.202596 -0.00943737 0
0.136957 -0.00454355 0
0.196285 -0.00899306 0
0.202596 -0.00943737 0
0.146333 -0.00748194 0
0.196285 -0.00899306 0
0.156009 -0.00852747 0
0.136957 -0.00454355 0
0.196285 -0.00899306 0
0.134867 -0.00475728 0
0.189979 -0.00941986 0
0.196285 -0.00899306 0
0.156009 -0.00852747 0
0.189979 -0.00941986 0
0.164149 -0.00896959 0
0.134867 -0.00475728 0
0.189979 -0.00941986 0
0.132949 -0.00410086 0
0.183569 -0.00876978 0
0.189979 -0.00941986 0
0.164149 -0.00896959 0
0.183569 -0.00876978 0
0.170847 -0.0103922 0
0.132949 -0.00410086 0
0.183569 -0.00876978 0
0.131409 -0.00334785 0
0.177114 -0.00757644 0
0.183569 -0.00876978 0
0.170847 -0.0103922 0
0.177114 -0.00757644 0
0.176694 -0.00778517 0
0.00675035 -0.0213183 0
0.00349569 -0.011881 0
0.0154706 -0.0229658 0
0.0109002 -0.0134455 0
0.00349569 -0.011881 0
0.0520274 0.00336762 0
0.0109002 -0.0134455 0
0.0741142 0.00500334 0
0.0154706 -0.0229658 0
0.0109002 -0.0134455 0
0.020836 -0.0160032 0
0.0198814 -0.00897646 0
0.0109002 -0.0134455 0
0.0741142 0.00500334 0
0.0198814 -0.00897646 0
0.093049 0.00487813 0
0.020836 -0.0160032 0
0.0198814 -0.00897646 0
0.0278692 -0.0132645 0
0.0252911 -0.0060242 0
0.0198814 -0.00897646 0
0.093049 0.00487813 0
0.0252911 -0.0060242 0
0.109438 0.0057518 0
0.0278692 -0.0132645 0
0.0252911 -0.0060242 0
0.0360067 -0.0115074 0
0.0299533 -0.00415265 0
0.0252911 -0.0060242 0
0.109438 0.0057518 0
0.0299533 -0.00415265 0
0.123399 0.00634882 0
0.0360067 -0.0115074 0
0.0299533 -0.00415265 0
0.0400147 -0.00133961 0
0.0332309 -0.000700554 0
0.0299533 -0.00415265 0
0.123399 0.00634882 0
0.0332309 -0.000700554 0
0.135563 0.00751548 0
0.0400147 -0.00133961 0
0.0332309 -0.000700554 0
0.0348325 0.0105806 0
0.0328014 0.00274228 0
0.0332309 -0.000700554 0
0.135563 0.00751548 0
0.0328014 0.00274228 0
0.146461 0.00751681 0
0.0348325 0.0105806 0
0.0328014 0.00274228 0
0.025634 0.0069483 0
0.031691 0.00238958 0
0.0328014 0.00274228 0
0.146461 0.00751681 0
0.031691 0.00238958 0
0.156158 0.00856107 0
0.025634 0.0069483 0
0.031691 0.00238958 0
0.0173731 0.00105303 0
0.0355211 0.000211308 0
0.031691 0.00238958 0
0.156158 0.00856107 0
0.0355211 0.000211308 0
0.164314 0.00900085 0
0.0173731 0.00105303 0
0.0355211 0.000211308 0
0.0110859 0.0101037 0
0.0386749 0.00696742 0
0.0355211 0.000211308 0
0.164314 0.00900085 0
0.0386749 0.00696742 0
0.171021 0.0104296 0
0.0110859 0.0101037 0
0.0386749 0.00696742 0
0.00815456 0.0225695 0
0.0311576 0.0129736 0
0.0386749 0.00696742 0
0.171021 0.0104296 0
0.0311576 0.0129736 0
0.176873 0.0078073 0
0 0 0
-0.00036079 0.0146315 0
0 0 0
0.00119606 0.0139034 0
-0.00036079 0.0146315 0
-0.00159584 0.0285503 0
0.00119606 0.0139034 0
0.00276046 0.0290756 0
0 0 0
0.00119606 0.0139034 0
0 0 0
0.000102942 0.0126666 0
0.00119606 0.0139034 0
0.00276046 0.0290756 0
0.000102942 0.0126666 0
0.00663873 0.0211266 0
-0.00159584 0.0285503 0
-0.00247981 0.0267706 0
0.00276046 0.0290756 0
0.00398939 0.0260961 0
-0.00247981 0.0267706 0
-0.00178839 0.0251029 0
0.00398939 0.0260961 0
0.00672164 0.0219929 0
0.00276046 0.0290756 0
0.00398939 0.0260961 0
0.00663873 0.0211266 0
0.0153156 0.0228171 0
0.00398939 0.0260961 0
0.00672164 0.0219929 0
0.0153156 0.0228171 0
0.0206796 0.0159267 0
-0.020224 -0.049764 0
-0.0427638 -0.0675545 0
-0.00950319 -0.0301408 0
-0.0303874 -0.0365747 0
-0.0427638 -0.0675545 0
-0.0670953 -0.0820502 0
-0.0303874 -0.0365747 0
-0.0615182 -0.0486469 0
-0.00950319 -0.0301408 0
-0.0303874 -0.0365747 0
0.00828415 -0.0226141 0
-0.00385922 -0.00515879 0
-0.0303874 -0.0365747 0
-0.0615182 -0.0486469 0
-0.00385922 -0.00515879 0
-0.0376652 -0.00486309 0
0.00828415 -0.0226141 0
-0.00385922 -0.00515879 0
0.0310743 -0.0129454 0
0.0290362 0.00138481 0
-0.00385922 -0.00515879 0
-0.0376652 -0.00486309 0
0.0290362 0.00138481 0
0.0458763 0.00823829 0
0.0310743 -0.0129454 0
0.0290362 0.00138481 0
0.176694 -0.00778517 0
0.181168 -0.00713957 0
0.0290362 0.00138481 0
0.0458763 0.00823829 0
0.181168 -0.00713957 0
0.182875 -0.00475517 0
-0.0670953 -0.0820502 0
-0.0799108 -0.0102045 0
-0.0615182 -0.0486469 0
-0.0757906 -0.0108405 0
-0.0799108 -0.0102045 0
-0.0659663 0.0577879 0
-0.0757906 -0.0108405 0
-0.0623631 0.0260048 0
-0.0615182 -0.0486469 0
-0.0757906 -0.0108405 0
-0.0376652 -0.00486309 0
-0.0427589 -0.0311396 0
-0.0757906 -0.0108405 0
-0.0623631 0.0260048 0
-0.0427589 -0.0311396 0
-0.0387672 0.0252205 0
-0.0659663 0.0577879 0
-0.0458058 0.0483916 0
-0.0623631 0.0260048 0
-0.047908 0.0396885 0
-0.0458058 0.0483916 0
-0.0422194 0.0402185 0
-0.047908 0.0396885 0
-0.0328828 0.0271353 0
-0.0623631 0.0260048 0
-0.047908 0.0396885 0
-0.0387672 0.0252205 0
-0.0422988 0.0281188 0
-0.047908 0.0396885 0
-0.0328828 0.0271353 0
-0.0422988 0.0281188 0
-0.0225934 -0.00171643 0
-0.0422194 0.0402185 0
-0.0372332 0.0271362 0
-0.0328828 0.0271353 0
-0.00172553 -0.00206892 0
-0.0372332 0.0271362 0
-0.0116992 0.0123164 0
-0.00172553 -0.00206892 0
0.0135132 -0.00654589 0
-0.0328828 0.0271353 0
-0.00172553 -0.00206892 0
-0.0225934 -0.00171643 0
-0.0231156 -0.00871747 0
-0.00172553 -0.00206892 0
0.0135132 -0.00654589 0
-0.0231156 -0.00871747 0
-0.029555 -0.00985658 0
0 0 0
0 0 0
-0.00312919 0.00668536 0
-0.0382303 0.0341126 0
0 0 0
0 0 0
-0.0382303 0.0341126 0
-0.0375494 -0.0337627 0
-0.00312919 0.00668536 0
-0.0382303 0.0341126 0
-0.0105192 0.0269559 0
0.0125763 0.0277529 0
-0.0382303 0.0341126 0
-0.0375494 -0.0337627 0
0.0125763 0.0277529 0
0.0144898 -0.0296734 0
-0.0105192 0.0269559 0
0.0125763 0.0277529 0
-0.0113842 0.0369225 0
0.00712536 -0.0296572 0
0.0125763 0.0277529 0
0.0144898 -0.0296734 0
0.00712536 -0.0296572 0
-0.0036026 0.0372852 0
-0.0113842 0.0369225 0
0.00712536 -0.0296572 0
-0.0116992 0.0123164 0
-0.0064442 -0.0309163 0
0.00712536 -0.0296572 0
-0.0036026 0.0372852 0
-0.0064442 -0.0309163 0
-0.0206638 0.0667788 0
-0.0116992 0.0123164 0
-0.0064442 -0.0309163 0
0.0135132 -0.00654589 0
-0.00989705 0.0086604 0
-0.0064442 -0.0309163 0
-0.0206638 0.0667788 0
-0.00989705 0.0086604 0
-0.0207255 0.055878 0
0.0135132 -0.00654589 0
-0.00989705 0.0086604 0
-0.029555 -0.00985658 0
-0.0111575 0.0177068 0
-0.00989705 0.0086604 0
-0.0207255 0.055878 0
-0.0111575 0.0177068 0
0.00993731 0.0350507 0
0 0 0
0 0 0
-0.0375494 -0.0337627 0
-0.0183711 0.0102828 0
0 0 0
0 0 0
-0.0183711 0.0102828 0
-0.0232402 -0.00370811 0
-0.0375494 -0.0337627 0
-0.0183711 0.0102828 0
0.0144898 -0.0296734 0
-0.02928 0.0337051 0
-0.0183711 0.0102828 0
-0.0232402 -0.00370811 0
-0.02928 0.0337051 0
-0.0442468 -0.00229843 0
0.0144898 -0.0296734 0
-0.02928 0.0337051 0
-0.0036026 0.0372852 0
-0.0284211 0.0466314 0
-0.02928 0.0337051 0
-0.0442468 -0.00229843 0
-0.0284211 0.0466314 0
-0.0267918 0.00122688 0
-0.0036026 0.0372852 0
-0.0284211 0.0466314 0
-0.0206638 0.0667788 0
-0.00354362 0.0260246 0
-0.0284211 0.0466314 0
-0.0267918 0.00122688 0
-0.00354362 0.0260246 0
0.0180154 -0.00509668 0
-0.0206638 0.0667788 0
-0.00354362 0.0260246 0
-0.0207255 0.055878 0
-0.016102 0.0114285 0
-0.00354362 0.0260246 0
0.0180154 -0.00509668 0
-0.016102 0.0114285 0
-0.0159089 -0.0157179 0
-0.0207255 0.055878 0
-0.016102 0.0114285 0
0.00993731 0.0350507 0
0.020547 0.0140655 0
-0.016102 0.0114285 0
-0.0159089 -0.0157179 0
0.020547 0.0140655 0
0.00577292 -0.00144587 0
0 0 0
0 0 0
-0.0232402 -0.00370811 0
-0.0170441 -0.00409233 0
0 0 0
0 0 0
-0.0170441 -0.00409233 0
-0.00410066 -0.0107349 0
-0.0232402 -0.00370811 0
-0.0170441 -0.00409233 0
-0.0442468 -0.00229843 0
-0.0422532 -0.0157416 0
-0.0170441 -0.00409233 0
-0.00410066 -0.0107349 0
-0.0422532 -0.0157416 0
-0.0286445 -0.0295365 0
-0.0442468 -0.00229843 0
-0.0422532 -0.0157416 0
-0.0267918 0.00122688 0
-0.0303267 -0.0178204 0
-0.0422532 -0.0157416 0
-0.0286445 -0.0295365 0
-0.0303267 -0.0178204 0
-0.0310042 -0.0424828 0
-0.0267918 0.00122688 0
-0.0303267 -0.0178204 0
0.0180154 -0.00509668 0
0.0101925 0.00128865 0
-0.0303267 -0.0178204 0
-0.0310042 -0.0424828 0
0.0101925 0.00128865 0
-0.0107595 -0.0364364 0
0.0180154 -0.00509668 0
0.0101925 0.00128865 0
-0.0159089 -0.0157179 0
-0.00404431 0.00716336 0
0.0101925 0.00128865 0
-0.0107595 -0.0364364 0
-0.00404431 0.00716336 0
-0.000699883 -0.0218102 0
-0.0159089 -0.0157179 0
-0.00404431 0.00716336 0
0.00577292 -0.00144587 0
0.00155476 -0.0167293 0
-0.00404431 0.00716336 0
-0.000699883 -0.0218102 0
0.00155476 -0.0167293 0
0.00277278 -0.00345892 0
0 0 0
0 0 0
-0.00410066 -0.0107349 0
0.00263447 0.0028992 0
0 0 0
0 0 0
0.00263447 0.0028992 0
0 0 0
-0.00410066 -0.0107349 0
0.00263447 0.0028992 0
-0.0286445 -0.0295365 0
-0.0107581 -0.00686659 0
0.00263447 0.0028992 0
0 0 0
-0.0107581 -0.00686659 0
0 0 0
-0.0286445 -0.0295365 0
-0.0107581 -0.00686659 0
-0.0310042 -0.0424828 0
-0.0133074 -0.0354949 0
-0.0107581 -0.00686659 0
0 0 0
-0.0133074 -0.0354949 0
0 0 0
-0.0310042 -0.0424828 0
-0.0133074 -0.0354949 0
-0.0107595 -0.0364364 0
-0.00997157 -0.0629405 0
-0.0133074 -0.0354949 0
0 0 0
-0.00997157 -0.0629405 0
0 0 0
-0.0107595 -0.0364364 0
-0.00997157 -0.0629405 0
-0.000699883 -0.0218102 0
-0.00206814 -0.0771334 0
-0.00997157 -0.0629405 0
0 0 0
-0.00206814 -0.0771334 0
0 0 0
-0.000699883 -0.0218102 0
-0.00206814 -0.0771334 0
0.00277278 -0.00345892 0
-0.00527811 -0.0857095 0
-0.00206814 -0.0771334 0
0 0 0
-0.00527811 -0.0857095 0
0 0 0
0.176873 0.0078073 0
0.176923 0.00758617 0
0.181349 0.00716644 0
0.17147 0.0057385 0
0.176923 0.00758617 0
0.13129 0.00334843 0
0.17147 0.0057385 0
0.130128 0.00260952 0
0.181349 0.00716644 0
0.17147 0.0057385 0
0.183047 0.00476666 0
0.168191 0.00374165 0
0.17147 0.0057385 0
0.130128 0.00260952 0
0.168191 0.00374165 0
0.129005 0.00184077 0
0.165797 0.0067915 0
0.107584 0.00597266 0
0.161782 0.00664259 0
0.110147 0.00577878 0
0.107584 0.00597266 0
0.227637 1.25314e-06 0
0.110147 0.00577878 0
0.215061 1.191e-06 0
0.161782 0.00664259 0
0.110147 0.00577878 0
0.157773 0.00657418 0
0.112276 0.0052817 0
0.110147 0.00577878 0
0.215061 1.191e-06 0
0.112276 0.0052817 0
0.203581 1.35769e-06 0
0.157773 0.00657418 0
0.112276 0.0052817 0
0.153679 0.00621916 0
0.114231 0.00503198 0
0.112276 0.0052817 0
0.203581 1.35769e-06 0
0.114231 0.00503198 0
0.193008 1.52752e-06 0
0.153679 0.00621916 0
0.114231 0.00503198 0
0.150043 0.00565752 0
0.115927 0.00455409 0
0.114231 0.00503198 0
0.193008 1.52752e-06 0
0.115927 0.00455409 0
0.183329 2.28619e-06 0
0.150043 0.00565752 0
0.115927 0.00455409 0
0.146861 0.00528141 0
0.117339 0.00432197 0
0.115927 0.00455409 0
0.183329 2.28619e-06 0
0.117339 0.00432197 0
0.174563 3.14565e-06 0
0.146861 0.00528141 0
0.117339 0.00432197 0
0.143985 0.0051329 0
0.118432 0.00391614 0
0.117339 0.00432197 0
0.174563 3.14565e-06 0
0.118432 0.00391614 0
0.166707 3.9442e-06 0
0.143985 0.0051329 0
0.118432 0.00391614 0
0.141373 0.00494741 0
0.119166 0.00386134 0
0.118432 0.00391614 0
0.166707 3.9442e-06 0
0.119166 0.00386134 0
0.159668 4.62019e-06 0
0.141373 0.00494741 0
0.119166 0.00386134 0
0.138991 0.0047755 0
0.119552 0.00344209 0
0.119166 0.00386134 0
0.159668 4.62019e-06 0
0.119552 0.00344209 0
0.153308 4.67841e-06 0
0.138991 0.0047755 0
0.119552 0.00344209 0
0.136808 0.00455078 0
0.119589 0.00346102 0
0.119552 0.00344209 0
0.153308 4.67841e-06 0
0.119589 0.00346102 0
0.147611 6.01759e-06 0
0.136808 0.00455078 0
0.119589 0.00346102 0
0.134726 0.00476604 0
0.119344 0.00309865 0
0.119589 0.00346102 0
0.147611 6.01759e-06 0
0.119344 0.00309865 0
0.142587 5.96214e-06 0
0.134726 0.00476604 0
0.119344 0.00309865 0
0.132818 0.00410361 0
0.118968 0.00309753 0
0.119344 0.00309865 0
0.142587 5.96214e-06 0
0.118968 0.00309753 0
0.138085 3.929e-06 0
0.132818 0.00410361 0
0.118968 0.00309753 0
0.13129 0.00334843 0
0.118637 0.00236257 0
0.118968 0.00309753 0