# vtk DataFile Version 3.0
#This file was generated by the deal.II library on 2026/3/26 at 11:20:24
ASCII
DATASET UNSTRUCTURED_GRID

POINTS 3648 double
0 0 0
0.214286 0 0
0 0.25 0
0.214286 0.25 0
0 0.25 0
0.214286 0.25 0
0 0.5 0
0.214286 0.5 0
0.214286 0 0
0.428571 0 0
0.214286 0.25 0
0.428571 0.25 0
0.214286 0.25 0
0.428571 0.25 0
0.214286 0.5 0
0.428571 0.5 0
0.428571 0 0
0.642857 0 0
0.428571 0.25 0
0.642857 0.25 0
0.428571 0.25 0
0.642857 0.25 0
0.428571 0.5 0
0.642857 0.5 0
0.428571 0.5 0
0.642857 0.5 0
0.428571 0.75 0
0.642857 0.75 0
0.642857 0 0
0.857143 0 0
0.642857 0.25 0
0.857143 0.25 0
0.642857 0.25 0
0.857143 0.25 0
0.642857 0.5 0
0.857143 0.5 0
0.642857 0.5 0
0.857143 0.5 0
0.642857 0.75 0
0.857143 0.75 0
0.857143 0 0
1.07143 0 0
0.857143 0.25 0
1.07143 0.25 0
0.857143 0.25 0
1.07143 0.25 0
0.857143 0.5 0
1.07143 0.5 0
0.857143 0.5 0
1.07143 0.5 0
0.857143 0.75 0
1.07143 0.75 0
1.07143 0 0
1.28571 0 0
1.07143 0.25 0
1.28571 0.25 0
1.07143 0.25 0
1.28571 0.25 0
1.07143 0.5 0
1.28571 0.5 0
1.07143 0.5 0
1.28571 0.5 0
1.07143 0.75 0
1.28571 0.75 0
1.28571 0 0
1.5 0 0
1.28571 0.25 0
1.5 0.25 0
1.28571 0.25 0
1.5 0.25 0
1.28571 0.5 0
1.5 0.5 0
1.5 0 0
1.71429 0 0
1.5 0.25 0
1.71429 0.25 0
1.5 0.25 0
1.71429 0.25 0
1.5 0.5 0
1.71429 0.5 0
1.71429 0 0
1.92857 0 0
1.71429 0.25 0
1.92857 0.25 0
1.71429 0.25 0
1.92857 0.25 0
1.71429 0.5 0
1.92857 0.5 0
1.92857 0 0
2.14286 0 0
1.92857 0.25 0
2.14286 0.25 0
1.92857 0.25 0
2.14286 0.25 0
1.92857 0.5 0
2.14286 0.5 0
0 3 0
0 2.75 0
0.214286 3 0
0.214286 2.75 0
0.214286 3 0
0.214286 2.75 0
0.428571 3 0
0.428571 2.75 0
0.428571 3 0
0.428571 2.75 0
0.642857 3 0
0.642857 2.75 0
0.642857 3 0
0.642857 2.75 0
0.857143 3 0
0.857143 2.75 0
0.857143 3 0
0.857143 2.75 0
1.07143 3 0
1.07143 2.75 0
1.07143 3 0
1.07143 2.75 0
1.28571 3 0
1.28571 2.75 0
1.28571 3 0
1.28571 2.75 0
1.5 3 0
1.5 2.75 0
1.5 3 0
1.5 2.75 0
1.71429 3 0
1.71429 2.75 0
1.71429 3 0
1.71429 2.75 0
1.92857 3 0
1.92857 2.75 0
1.92857 3 0
1.92857 2.75 0
2.14286 3 0
2.14286 2.75 0
0 2.75 0
0 2.5 0
0.214286 2.75 0
0.214286 2.5 0
0.214286 2.75 0
0.214286 2.5 0
0.428571 2.75 0
0.428571 2.5 0
0.428571 2.75 0
0.428571 2.5 0
0.642857 2.75 0
0.642857 2.5 0
0.642857 2.75 0
0.642857 2.5 0
0.857143 2.75 0
0.857143 2.5 0
0.857143 2.75 0
0.857143 2.5 0
1.07143 2.75 0
1.07143 2.5 0
1.07143 2.75 0
1.07143 2.5 0
1.28571 2.75 0
1.28571 2.5 0
1.28571 2.75 0
1.28571 2.5 0
1.5 2.75 0
1.5 2.5 0
1.5 2.75 0
1.5 2.5 0
1.71429 2.75 0
1.71429 2.5 0
1.71429 2.75 0
1.71429 2.5 0
1.92857 2.75 0
1.92857 2.5 0
1.92857 2.75 0
1.92857 2.5 0
2.14286 2.75 0
2.14286 2.5 0
0.428571 2.5 0
0.428571 2.25 0
0.642857 2.5 0
0.642857 2.25 0
0.642857 2.5 0
0.642857 2.25 0
0.857143 2.5 0
0.857143 2.25 0
0.857143 2.5 0
0.857143 2.25 0
1.07143 2.5 0
1.07143 2.25 0
1.07143 2.5 0
1.07143 2.25 0
1.28571 2.5 0
1.28571 2.25 0
0.214286 0.75 0
0.321429 0.75 0
0.214286 0.875 0
0.321429 0.875 0
0.321429 0.75 0
0.428571 0.75 0
0.321429 0.875 0
0.428571 0.875 0
0.214286 0.875 0
0.321429 0.875 0
0.214286 1 0
0.321429 1 0
0.321429 0.875 0
0.428571 0.875 0
0.321429 1 0
0.428571 1 0
0.428571 0.75 0
0.535714 0.75 0
0.428571 0.875 0
0.535714 0.875 0
0.535714 0.75 0
0.642857 0.75 0
0.535714 0.875 0
0.642857 0.875 0
0.428571 0.875 0
0.535714 0.875 0
0.428571 1 0
0.535714 1 0
0.535714 0.875 0
0.642857 0.875 0
0.535714 1 0
0.642857 1 0
0.642857 0.75 0
0.75 0.75 0
0.642857 0.875 0
0.75 0.875 0
0.75 0.75 0
0.857143 0.75 0
0.75 0.875 0
0.857143 0.875 0
0.642857 0.875 0
0.75 0.875 0
0.642857 1 0
0.75 1 0
0.75 0.875 0
0.857143 0.875 0
0.75 1 0
0.857143 1 0
0.857143 0.75 0
0.964286 0.75 0
0.857143 0.875 0
0.964286 0.875 0
0.964286 0.75 0
1.07143 0.75 0
0.964286 0.875 0
1.07143 0.875 0
0.857143 0.875 0
0.964286 0.875 0
0.857143 1 0
0.964286 1 0
0.964286 0.875 0
1.07143 0.875 0
0.964286 1 0
1.07143 1 0
1.07143 0.75 0
1.17857 0.75 0
1.07143 0.875 0
1.17857 0.875 0
1.17857 0.75 0
1.28571 0.75 0
1.17857 0.875 0
1.28571 0.875 0
1.07143 0.875 0
1.17857 0.875 0
1.07143 1 0
1.17857 1 0
1.17857 0.875 0
1.28571 0.875 0
1.17857 1 0
1.28571 1 0
0.214286 2 0
0.214286 1.875 0
0.321429 2 0
0.321429 1.875 0
0.214286 1.875 0
0.214286 1.75 0
0.321429 1.875 0
0.321429 1.75 0
0.321429 2 0
0.321429 1.875 0
0.428571 2 0
0.428571 1.875 0
0.321429 1.875 0
0.321429 1.75 0
0.428571 1.875 0
0.428571 1.75 0
0.428571 2 0
0.428571 1.875 0
0.535714 2 0
0.535714 1.875 0
0.428571 1.875 0
0.428571 1.75 0
0.535714 1.875 0
0.535714 1.75 0
0.535714 2 0
0.535714 1.875 0
0.642857 2 0
0.642857 1.875 0
0.535714 1.875 0
0.535714 1.75 0
0.642857 1.875 0
0.642857 1.75 0
0.642857 2 0
0.642857 1.875 0
0.75 2 0
0.75 1.875 0
0.642857 1.875 0
0.642857 1.75 0
0.75 1.875 0
0.75 1.75 0
0.75 2 0
0.75 1.875 0
0.857143 2 0
0.857143 1.875 0
0.75 1.875 0
0.75 1.75 0
0.857143 1.875 0
0.857143 1.75 0
0.857143 2 0
0.857143 1.875 0
0.964286 2 0
0.964286 1.875 0
0.857143 1.875 0
0.857143 1.75 0
0.964286 1.875 0
0.964286 1.75 0
0.964286 2 0
0.964286 1.875 0
1.07143 2 0
1.07143 1.875 0
0.964286 1.875 0
0.964286 1.75 0
1.07143 1.875 0
1.07143 1.75 0
1.07143 2 0
1.07143 1.875 0
1.17857 2 0
1.17857 1.875 0
1.07143 1.875 0
1.07143 1.75 0
1.17857 1.875 0
1.17857 1.75 0
1.17857 2 0
1.17857 1.875 0
1.28571 2 0
1.28571 1.875 0
1.17857 1.875 0
1.17857 1.75 0
1.28571 1.875 0
1.28571 1.75 0
0.214286 1.25 0
0.214286 1.125 0
0.321429 1.25 0
0.321429 1.125 0
0.214286 1.125 0
0.214286 1 0
0.321429 1.125 0
0.321429 1 0
0.321429 1.25 0
0.321429 1.125 0
0.428571 1.25 0
0.428571 1.125 0
0.321429 1.125 0
0.321429 1 0
0.428571 1.125 0
0.428571 1 0
0.428571 1.25 0
0.428571 1.125 0
0.535714 1.25 0
0.535714 1.125 0
0.428571 1.125 0
0.428571 1 0
0.535714 1.125 0
0.535714 1 0
0.535714 1.25 0
0.535714 1.125 0
0.642857 1.25 0
0.642857 1.125 0
0.535714 1.125 0
0.535714 1 0
0.642857 1.125 0
0.642857 1 0
0.642857 1.25 0
0.642857 1.125 0
0.75 1.25 0
0.75 1.125 0
0.642857 1.125 0
0.642857 1 0
0.75 1.125 0
0.75 1 0
0.75 1.25 0
0.75 1.125 0
0.857143 1.25 0
0.857143 1.125 0
0.75 1.125 0
0.75 1 0
0.857143 1.125 0
0.857143 1 0
0.857143 1.25 0
0.857143 1.125 0
0.964286 1.25 0
0.964286 1.125 0
0.857143 1.125 0
0.857143 1 0
0.964286 1.125 0
0.964286 1 0
0.964286 1.25 0
0.964286 1.125 0
1.07143 1.25 0
1.07143 1.125 0
0.964286 1.125 0
0.964286 1 0
1.07143 1.125 0
1.07143 1 0
1.07143 1.25 0
1.07143 1.125 0
1.17857 1.25 0
1.17857 1.125 0
1.07143 1.125 0
1.07143 1 0
1.17857 1.125 0
1.17857 1 0
1.17857 1.25 0
1.17857 1.125 0
1.28571 1.25 0
1.28571 1.125 0
1.17857 1.125 0
1.17857 1 0
1.28571 1.125 0
1.28571 1 0
0.214286 2.25 0
0.214286 2.125 0
0.321429 2.25 0
0.321429 2.125 0
0.214286 2.125 0
0.214286 2 0
0.321429 2.125 0
0.321429 2 0
0.321429 2.25 0
0.321429 2.125 0
0.428571 2.25 0
0.428571 2.125 0
0.321429 2.125 0
0.321429 2 0
0.428571 2.125 0
0.428571 2 0
0.428571 2.25 0
0.428571 2.125 0
0.535714 2.25 0
0.535714 2.125 0
0.428571 2.125 0
0.428571 2 0
0.535714 2.125 0
0.535714 2 0
0.535714 2.25 0
0.535714 2.125 0
0.642857 2.25 0
0.642857 2.125 0
0.535714 2.125 0
0.535714 2 0
0.642857 2.125 0
0.642857 2 0
0.642857 2.25 0
0.642857 2.125 0
0.75 2.25 0
0.75 2.125 0
0.642857 2.125 0
0.642857 2 0
0.75 2.125 0
0.75 2 0
0.75 2.25 0
0.75 2.125 0
0.857143 2.25 0
0.857143 2.125 0
0.75 2.125 0
0.75 2 0
0.857143 2.125 0
0.857143 2 0
0.857143 2.25 0
0.857143 2.125 0
0.964286 2.25 0
0.964286 2.125 0
0.857143 2.125 0
0.857143 2 0
0.964286 2.125 0
0.964286 2 0
0.964286 2.25 0
0.964286 2.125 0
1.07143 2.25 0
1.07143 2.125 0
0.964286 2.125 0
0.964286 2 0
1.07143 2.125 0
1.07143 2 0
1.07143 2.25 0
1.07143 2.125 0
1.17857 2.25 0
1.17857 2.125 0
1.07143 2.125 0
1.07143 2 0
1.17857 2.125 0
1.17857 2 0
1.17857 2.25 0
1.17857 2.125 0
1.28571 2.25 0
1.28571 2.125 0
1.17857 2.125 0
1.17857 2 0
1.28571 2.125 0
1.28571 2 0
0 0.5 0
0.107143 0.5 0
0 0.625 0
0.107143 0.625 0
0.107143 0.5 0
0.214286 0.5 0
0.107143 0.625 0
0.214286 0.625 0
0 0.625 0
0.107143 0.625 0
0 0.75 0
0.107143 0.75 0
0.107143 0.625 0
0.214286 0.625 0
0.107143 0.75 0
0.214286 0.75 0
0.214286 0.5 0
0.321429 0.5 0
0.214286 0.625 0
0.321429 0.625 0
0.321429 0.5 0
0.428571 0.5 0
0.321429 0.625 0
0.428571 0.625 0
0.214286 0.625 0
0.321429 0.625 0
0.214286 0.75 0
0.321429 0.75 0
0.321429 0.625 0
0.428571 0.625 0
0.321429 0.75 0
0.428571 0.75 0
1.28571 0.5 0
1.39286 0.5 0
1.28571 0.625 0
1.39286 0.625 0
1.39286 0.5 0
1.5 0.5 0
1.39286 0.625 0
1.5 0.625 0
1.28571 0.625 0
1.39286 0.625 0
1.28571 0.75 0
1.39286 0.75 0
1.39286 0.625 0
1.5 0.625 0
1.39286 0.75 0
1.5 0.75 0
1.28571 0.75 0
1.39286 0.75 0
1.28571 0.875 0
1.39286 0.875 0
1.39286 0.75 0
1.5 0.75 0
1.39286 0.875 0
1.5 0.875 0
1.28571 0.875 0
1.39286 0.875 0
1.28571 1 0
1.39286 1 0
1.39286 0.875 0
1.5 0.875 0
1.39286 1 0
1.5 1 0
1.5 0.5 0
1.60714 0.5 0
1.5 0.625 0
1.60714 0.625 0
1.60714 0.5 0
1.71429 0.5 0
1.60714 0.625 0
1.71429 0.625 0
1.5 0.625 0
1.60714 0.625 0
1.5 0.75 0
1.60714 0.75 0
1.60714 0.625 0
1.71429 0.625 0
1.60714 0.75 0
1.71429 0.75 0
1.71429 0.5 0
1.82143 0.5 0
1.71429 0.625 0
1.82143 0.625 0
1.82143 0.5 0
1.92857 0.5 0
1.82143 0.625 0
1.92857 0.625 0
1.71429 0.625 0
1.82143 0.625 0
1.71429 0.75 0
1.82143 0.75 0
1.82143 0.625 0
1.92857 0.625 0
1.82143 0.75 0
1.92857 0.75 0
1.92857 0.5 0
2.03571 0.5 0
1.92857 0.625 0
2.03571 0.625 0
2.03571 0.5 0
2.14286 0.5 0
2.03571 0.625 0
2.14286 0.625 0
1.92857 0.625 0
2.03571 0.625 0
1.92857 0.75 0
2.03571 0.75 0
2.03571 0.625 0
2.14286 0.625 0
2.03571 0.75 0
2.14286 0.75 0
2.14286 0 0
2.25 0 0
2.14286 0.125 0
2.25 0.125 0
2.25 0 0
2.35714 0 0
2.25 0.125 0
2.35714 0.125 0
2.14286 0.125 0
2.25 0.125 0
2.14286 0.25 0
2.25 0.25 0
2.25 0.125 0
2.35714 0.125 0
2.25 0.25 0
2.35714 0.25 0
2.14286 0.25 0
2.25 0.25 0
2.14286 0.375 0
2.25 0.375 0
2.25 0.25 0
2.35714 0.25 0
2.25 0.375 0
2.35714 0.375 0
2.14286 0.375 0
2.25 0.375 0
2.14286 0.5 0
2.25 0.5 0
2.25 0.375 0
2.35714 0.375 0
2.25 0.5 0
2.35714 0.5 0
2.14286 0.5 0
2.25 0.5 0
2.14286 0.625 0
2.25 0.625 0
2.25 0.5 0
2.35714 0.5 0
2.25 0.625 0
2.35714 0.625 0
2.14286 0.625 0
2.25 0.625 0
2.14286 0.75 0
2.25 0.75 0
2.25 0.625 0
2.35714 0.625 0
2.25 0.75 0
2.35714 0.75 0
2.35714 0 0
2.46429 0 0
[...]
POINT_DATA 3648
VECTORS velocity double
0 0 0
0 0 0
0 0 0
-0.0115753 0.013026 0
0 0 0
-0.0115753 0.013026 0
0 0 0
-0.00160426 0.0285529 0
0 0 0
0 0 0
-0.0115753 0.013026 0
-0.0344368 0.0134251 0
-0.0115753 0.013026 0
-0.0344368 0.0134251 0
-0.00160426 0.0285529 0
-0.00181066 0.0251692 0
0 0 0
0 0 0
-0.0344368 0.0134251 0
-0.0525744 0.00813345 0
-0.0344368 0.0134251 0
-0.0525744 0.00813345 0
-0.00181066 0.0251692 0
-0.00276094 0.0187056 0
-0.00181066 0.0251692 0
-0.00276094 0.0187056 0
0.0207002 0.0159743 0
0.0359791 0.0117171 0
0 0 0
0 0 0
-0.0525744 0.00813345 0
-0.0588659 -0.000459325 0
-0.0525744 0.00813345 0
-0.0588659 -0.000459325 0
-0.00276094 0.0187056 0
0.0031744 -0.0117035 0
-0.00276094 0.0187056 0
0.0031744 -0.0117035 0
0.0359791 0.0117171 0
0.0349791 -0.0103714 0
0 0 0
0 0 0
-0.0588659 -0.000459325 0
-0.0486523 -0.0111274 0
-0.0588659 -0.000459325 0
-0.0486523 -0.0111274 0
0.0031744 -0.0117035 0
0.00718364 -0.0163197 0
0.0031744 -0.0117035 0
0.00718364 -0.0163197 0
0.0349791 -0.0103714 0
0.0176886 -0.00119298 0
0 0 0
0 0 0
-0.0486523 -0.0111274 0
-0.00768672 -0.0389508 0
-0.0486523 -0.0111274 0
-0.00768672 -0.0389508 0
0.00718364 -0.0163197 0
-0.020236 -0.0497312 0
0.00718364 -0.0163197 0
-0.020236 -0.0497312 0
0.0176886 -0.00119298 0
0.00833782 -0.022573 0
0 0 0
0 0 0
-0.00768672 -0.0389508 0
0.0724808 -0.0557166 0
-0.00768672 -0.0389508 0
0.0724808 -0.0557166 0
-0.020236 -0.0497312 0
-0.0670523 -0.0820296 0
0 0 0
0 0 0
0.0724808 -0.0557166 0
0.0814607 0.0455664 0
0.0724808 -0.0557166 0
0.0814607 0.0455664 0
-0.0670523 -0.0820296 0
-0.0659022 0.0577446 0
0 0 0
0 0 0
0.0814607 0.0455664 0
0.0278977 0.016703 0
0.0814607 0.0455664 0
0.0278977 0.016703 0
-0.0659022 0.0577446 0
-0.0422123 0.0401897 0
0 0 0
0 0 0
0.0278977 0.016703 0
-0.0105878 0.0269769 0
0.0278977 0.016703 0
-0.0105878 0.0269769 0
-0.0422123 0.0401897 0
-0.011658 0.0123002 0
0 0 0
0 0 0
0 0 0
-0.0116797 -0.0131416 0
0 0 0
-0.0116797 -0.0131416 0
0 0 0
-0.0347025 -0.0134938 0
0 0 0
-0.0347025 -0.0134938 0
0 0 0
-0.0528168 -0.00804838 0
0 0 0
-0.0528168 -0.00804838 0
0 0 0
-0.0589307 0.00057167 0
0 0 0
-0.0589307 0.00057167 0
0 0 0
-0.0486391 0.0111085 0
0 0 0
-0.0486391 0.0111085 0
0 0 0
-0.00758309 0.0390979 0
0 0 0
-0.00758309 0.0390979 0
0 0 0
0.0726275 0.0556203 0
0 0 0
0.0726275 0.0556203 0
0 0 0
0.0815296 -0.0455473 0
0 0 0
0.0815296 -0.0455473 0
0 0 0
0.0280347 -0.016657 0
0 0 0
0.0280347 -0.016657 0
0 0 0
-0.0105113 -0.0270833 0
0 0 0
0 0 0
-0.0116797 -0.0131416 0
-0.00162198 -0.0288149 0
-0.0116797 -0.0131416 0
-0.00162198 -0.0288149 0
-0.0347025 -0.0134938 0
-0.00179239 -0.0252426 0
-0.0347025 -0.0134938 0
-0.00179239 -0.0252426 0
-0.0528168 -0.00804838 0
-0.00269721 -0.0185331 0
-0.0528168 -0.00804838 0
-0.00269721 -0.0185331 0
-0.0589307 0.00057167 0
0.00328858 0.0120073 0
-0.0589307 0.00057167 0
0.00328858 0.0120073 0
-0.0486391 0.0111085 0
0.00737839 0.0162882 0
-0.0486391 0.0111085 0
0.00737839 0.0162882 0
-0.00758309 0.0390979 0
-0.0202442 0.049758 0
-0.00758309 0.0390979 0
-0.0202442 0.049758 0
0.0726275 0.0556203 0
-0.0670975 0.0820337 0
0.0726275 0.0556203 0
-0.0670975 0.0820337 0
0.0815296 -0.0455473 0
-0.0658642 -0.0577848 0
0.0815296 -0.0455473 0
-0.0658642 -0.0577848 0
0.0280347 -0.016657 0
-0.0422105 -0.0400623 0
0.0280347 -0.016657 0
-0.0422105 -0.0400623 0
-0.0105113 -0.0270833 0
-0.0116599 -0.0125506 0
-0.00179239 -0.0252426 0
0.020859 -0.0160551 0
-0.00269721 -0.0185331 0
0.0360807 -0.0115519 0
-0.00269721 -0.0185331 0
0.0360807 -0.0115519 0
0.00328858 0.0120073 0
0.0349436 0.0105685 0
0.00328858 0.0120073 0
0.0349436 0.0105685 0
0.00737839 0.0162882 0
0.0174619 0.0011194 0
0.00737839 0.0162882 0
0.0174619 0.0011194 0
-0.0202442 0.049758 0
0.00821089 0.0225321 0
0.00663809 0.0211372 0
0.0153188 0.0228248 0
0.00344832 0.0117973 0
0.0107415 0.0133824 0
0.0153188 0.0228248 0
0.0207002 0.0159743 0
0.0107415 0.0133824 0
0.0196571 0.0089264 0
0.00344832 0.0117973 0
0.0107415 0.0133824 0
0.0520564 -0.00336769 0
0.0741374 -0.00501146 0
0.0107415 0.0133824 0
0.0196571 0.0089264 0
0.0741374 -0.00501146 0
0.0930594 -0.00488841 0
0.0207002 0.0159743 0
0.0278022 0.0133549 0
0.0196571 0.0089264 0
0.0250719 0.00604964 0
0.0278022 0.0133549 0
0.0359791 0.0117171 0
0.0250719 0.00604964 0
0.0298481 0.00424938 0
0.0196571 0.0089264 0
0.0250719 0.00604964 0
0.0930594 -0.00488841 0
0.109432 -0.00574958 0
0.0250719 0.00604964 0
0.0298481 0.00424938 0
0.109432 -0.00574958 0
0.123373 -0.00633576 0
0.0359791 0.0117171 0
0.0400419 0.0015471 0
0.0298481 0.00424938 0
0.0332669 0.000795892 0
0.0400419 0.0015471 0
0.0349791 -0.0103714 0
0.0332669 0.000795892 0
0.0329385 -0.00267339 0
0.0298481 0.00424938 0
0.0332669 0.000795892 0
0.123373 -0.00633576 0
0.135522 -0.0074831 0
0.0332669 0.000795892 0
0.0329385 -0.00267339 0
0.135522 -0.0074831 0
0.146409 -0.00749234 0
0.0349791 -0.0103714 0
0.0258987 -0.00689992 0
0.0329385 -0.00267339 0
0.03187 -0.00237836 0
0.0258987 -0.00689992 0
0.0176886 -0.00119298 0
0.03187 -0.00237836 0
0.0356291 -0.000280703 0
0.0329385 -0.00267339 0
0.03187 -0.00237836 0
0.146409 -0.00749234 0
0.156096 -0.0085425 0
0.03187 -0.00237836 0
0.0356291 -0.000280703 0
0.156096 -0.0085425 0
0.164249 -0.00899114 0
0.0176886 -0.00119298 0
0.0113781 -0.010197 0
0.0356291 -0.000280703 0
0.0386828 -0.00698162 0
0.0113781 -0.010197 0
0.00833782 -0.022573 0
0.0386828 -0.00698162 0
0.0311721 -0.0129366 0
0.0356291 -0.000280703 0
0.0386828 -0.00698162 0
0.164249 -0.00899114 0
0.170961 -0.0104145 0
0.0386828 -0.00698162 0
0.0311721 -0.0129366 0
0.170961 -0.0104145 0
0.176817 -0.00781652 0
0.0520453 0.00336973 0
0.240825 0.0132491 0
0.0741425 0.00500317 0
0.23376 0.012257 0
0.240825 0.0132491 0
0.157718 0.00657418 0
0.23376 0.012257 0
0.153628 0.00621869 0
0.0741425 0.00500317 0
0.23376 0.012257 0
0.0930845 0.00487904 0
0.227139 0.011192 0
0.23376 0.012257 0
0.153628 0.00621869 0
0.227139 0.011192 0
0.149996 0.00565729 0
0.0930845 0.00487904 0
0.227139 0.011192 0
0.10948 0.00574991 0
0.220851 0.0101929 0
0.227139 0.011192 0
0.149996 0.00565729 0
0.220851 0.0101929 0
0.146817 0.00528146 0
0.10948 0.00574991 0
0.220851 0.0101929 0
0.123449 0.00634888 0
0.214802 0.00996122 0
0.220851 0.0101929 0
0.146817 0.00528146 0
0.214802 0.00996122 0
0.143945 0.00513382 0
0.123449 0.00634888 0
0.214802 0.00996122 0
0.13562 0.00751795 0
0.20877 0.00952459 0
0.214802 0.00996122 0
0.143945 0.00513382 0
0.20877 0.00952459 0
0.141336 0.00494984 0
0.13562 0.00751795 0
0.20877 0.00952459 0
0.146527 0.00752622 0
0.202582 0.00946959 0
0.20877 0.00952459 0
0.141336 0.00494984 0
0.202582 0.00946959 0
0.138955 0.00477955 0
0.146527 0.00752622 0
0.202582 0.00946959 0
0.156236 0.00857547 0
0.196223 0.00902607 0
0.202582 0.00946959 0
0.138955 0.00477955 0
0.196223 0.00902607 0
0.136773 0.00455687 0
0.156236 0.00857547 0
0.196223 0.00902607 0
0.164405 0.00902211 0
0.189866 0.00945593 0
0.196223 0.00902607 0
0.136773 0.00455687 0
0.189866 0.00945593 0
0.134692 0.00477264 0
0.164405 0.00902211 0
0.189866 0.00945593 0
0.171126 0.0104519 0
0.183405 0.00880158 0
0.189866 0.00945593 0
0.134692 0.00477264 0
0.183405 0.00880158 0
0.132785 0.00411149 0
0.171126 0.0104519 0
0.183405 0.00880158 0
0.176988 0.00783842 0
0.176898 0.00760541 0
0.183405 0.00880158 0
0.132785 0.00411149 0
0.176898 0.00760541 0
0.131257 0.0033564 0
0.157905 -0.0065844 0
0.240736 -0.0132522 0
0.153806 -0.00622828 0
0.233689 -0.0122648 0
0.240736 -0.0132522 0
0.0520564 -0.00336769 0
0.233689 -0.0122648 0
0.0741374 -0.00501146 0
0.153806 -0.00622828 0
0.233689 -0.0122648 0
0.150164 -0.00566381 0
0.227083 -0.0111973 0
0.233689 -0.0122648 0
0.0741374 -0.00501146 0
0.227083 -0.0111973 0
0.0930594 -0.00488841 0
0.150164 -0.00566381 0
0.227083 -0.0111973 0
0.146977 -0.0052834 0
0.220809 -0.0101915 0
0.227083 -0.0111973 0
0.0930594 -0.00488841 0
0.220809 -0.0101915 0
0.109432 -0.00574958 0
0.146977 -0.0052834 0
0.220809 -0.0101915 0
0.144098 -0.00513115 0
0.214783 -0.0099472 0
0.220809 -0.0101915 0
0.109432 -0.00574958 0
0.214783 -0.0099472 0
0.123373 -0.00633576 0
0.144098 -0.00513115 0
0.214783 -0.0099472 0
0.141485 -0.00494341 0
0.208781 -0.00950389 0
0.214783 -0.0099472 0
0.123373 -0.00633576 0
0.208781 -0.00950389 0
0.135522 -0.0074831 0
0.141485 -0.00494341 0
0.208781 -0.00950389 0
0.1391 -0.00477229 0
0.202627 -0.00944501 0
0.208781 -0.00950389 0
0.135522 -0.0074831 0
0.202627 -0.00944501 0
0.146409 -0.00749234 0
0.1391 -0.00477229 0
0.202627 -0.00944501 0
0.136912 -0.00454935 0
0.196305 -0.00900575 0
0.202627 -0.00944501 0
0.146409 -0.00749234 0
0.196305 -0.00900575 0
0.156096 -0.0085425 0
0.136912 -0.00454935 0
0.196305 -0.00900575 0
0.134823 -0.00476348 0
0.189981 -0.00943512 0
0.196305 -0.00900575 0
0.156096 -0.0085425 0
0.189981 -0.00943512 0
0.164249 -0.00899114 0
0.134823 -0.00476348 0
0.189981 -0.00943512 0
0.132906 -0.00410822 0
0.183551 -0.0087875 0
0.189981 -0.00943512 0
0.164249 -0.00899114 0
0.183551 -0.0087875 0
0.170961 -0.0104145 0
0.132906 -0.00410822 0
0.183551 -0.0087875 0
0.131367 -0.00335547 0
0.177076 -0.00759516 0
0.183551 -0.0087875 0
0.170961 -0.0104145 0
0.177076 -0.00759516 0
0.176817 -0.00781652 0
0.0067515 -0.0213331 0
0.00349942 -0.0118926 0
0.0154755 -0.0229745 0
0.010908 -0.0134483 0
0.00349942 -0.0118926 0
0.0520453 0.00336973 0
0.010908 -0.0134483 0
0.0741425 0.00500317 0
0.0154755 -0.0229745 0
0.010908 -0.0134483 0
0.020859 -0.0160551 0
0.0199024 -0.00899721 0
0.010908 -0.0134483 0
0.0741425 0.00500317 0
0.0199024 -0.00899721 0
0.0930845 0.00487904 0
0.020859 -0.0160551 0
0.0199024 -0.00899721 0
0.0279152 -0.0133133 0
0.0253401 -0.00604493 0
0.0199024 -0.00899721 0
0.0930845 0.00487904 0
0.0253401 -0.00604493 0
0.10948 0.00574991 0
0.0279152 -0.0133133 0
0.0253401 -0.00604493 0
0.0360807 -0.0115519 0
0.0300234 -0.00416823 0
0.0253401 -0.00604493 0
0.10948 0.00574991 0
0.0300234 -0.00416823 0
0.123449 0.00634888 0
0.0360807 -0.0115519 0
0.0300234 -0.00416823 0
0.0401134 -0.00136911 0
0.0333169 -0.00071242 0
0.0300234 -0.00416823 0
0.123449 0.00634888 0
0.0333169 -0.00071242 0
0.13562 0.00751795 0
0.0401134 -0.00136911 0
0.0333169 -0.00071242 0
0.0349436 0.0105685 0
0.0328988 0.00273919 0
0.0333169 -0.00071242 0
0.13562 0.00751795 0
0.0328988 0.00273919 0
0.146527 0.00752622 0
0.0349436 0.0105685 0
0.0328988 0.00273919 0
0.0257425 0.00697521 0
0.0317875 0.00240135 0
0.0328988 0.00273919 0
0.146527 0.00752622 0
0.0317875 0.00240135 0
0.156236 0.00857547 0
0.0257425 0.00697521 0
0.0317875 0.00240135 0
0.0174619 0.0011194 0
0.0355952 0.000242087 0
0.0317875 0.00240135 0
0.156236 0.00857547 0
0.0355952 0.000242087 0
0.164405 0.00902211 0
0.0174619 0.0011194 0
0.0355952 0.000242087 0
0.011153 0.0101189 0
0.0387362 0.00697599 0
0.0355952 0.000242087 0
0.164405 0.00902211 0
0.0387362 0.00697599 0
0.171126 0.0104519 0
0.011153 0.0101189 0
0.0387362 0.00697599 0
0.00821089 0.0225321 0
0.0312511 0.0129663 0
0.0387362 0.00697599 0
0.171126 0.0104519 0
0.0312511 0.0129663 0
0.176988 0.00783842 0
0 0 0
-0.000362753 0.014632 0
0 0 0
0.00119468 0.0139064 0
-0.000362753 0.014632 0
-0.00160426 0.0285529 0
0.00119468 0.0139064 0
0.00275805 0.0290825 0
0 0 0
0.00119468 0.0139064 0
0 0 0
0.000104346 0.0126677 0
0.00119468 0.0139064 0
0.00275805 0.0290825 0
0.000104346 0.0126677 0
0.00663809 0.0211372 0
-0.00160426 0.0285529 0
-0.00249614 0.0268058 0
0.00275805 0.0290825 0
0.00399567 0.026124 0
-0.00249614 0.0268058 0
-0.00181066 0.0251692 0
0.00399567 0.026124 0
0.00674074 0.0220569 0
0.00275805 0.0290825 0
0.00399567 0.026124 0
0.00663809 0.0211372 0
0.0153188 0.0228248 0
0.00399567 0.026124 0
0.00674074 0.0220569 0
0.0153188 0.0228248 0
0.0207002 0.0159743 0
-0.020236 -0.0497312 0
-0.0427639 -0.0675289 0
-0.00945746 -0.0301051 0
-0.0303135 -0.0365981 0
-0.0427639 -0.0675289 0
-0.0670523 -0.0820296 0
-0.0303135 -0.0365981 0
-0.0614348 -0.0486387 0
-0.00945746 -0.0301051 0
-0.0303135 -0.0365981 0
0.00833782 -0.022573 0
-0.00376516 -0.00526836 0
-0.0303135 -0.0365981 0
-0.0614348 -0.0486387 0
-0.00376516 -0.00526836 0
-0.037528 -0.00482692 0
0.00833782 -0.022573 0
-0.00376516 -0.00526836 0
0.0311721 -0.0129366 0
0.0291018 0.00129818 0
-0.00376516 -0.00526836 0
-0.037528 -0.00482692 0
0.0291018 0.00129818 0
0.045904 0.00824502 0
0.0311721 -0.0129366 0
0.0291018 0.00129818 0
0.176817 -0.00781652 0
0.181301 -0.00716244 0
0.0291018 0.00129818 0
0.045904 0.00824502 0
0.181301 -0.00716244 0
0.183016 -0.00477709 0
-0.0670523 -0.0820296 0
-0.0798323 -0.0102121 0
-0.0614348 -0.0486387 0
-0.0756985 -0.0108859 0
-0.0798323 -0.0102121 0
-0.0659022 0.0577446 0
-0.0756985 -0.0108859 0
-0.0622648 0.0260094 0
-0.0614348 -0.0486387 0
-0.0756985 -0.0108859 0
-0.037528 -0.00482692 0
-0.0426874 -0.0311483 0
-0.0756985 -0.0108859 0
-0.0622648 0.0260094 0
-0.0426874 -0.0311483 0
-0.0386585 0.0251428 0
-0.0659022 0.0577446 0
-0.0457764 0.0483537 0
-0.0622648 0.0260094 0
-0.0478228 0.0396606 0
-0.0457764 0.0483537 0
-0.0422123 0.0401897 0
-0.0478228 0.0396606 0
-0.0328653 0.0271968 0
-0.0622648 0.0260094 0
-0.0478228 0.0396606 0
-0.0386585 0.0251428 0
-0.0421928 0.0281928 0
-0.0478228 0.0396606 0
-0.0328653 0.0271968 0
-0.0421928 0.0281928 0
-0.0225194 -0.00164188 0
-0.0422123 0.0401897 0
-0.0372242 0.0271164 0
-0.0328653 0.0271968 0
-0.00173934 -0.00214136 0
-0.0372242 0.0271164 0
-0.011658 0.0123002 0
-0.00173934 -0.00214136 0
0.0134861 -0.00653157 0
-0.0328653 0.0271968 0
-0.00173934 -0.00214136 0
-0.0225194 -0.00164188 0
-0.0230653 -0.00873378 0
-0.00173934 -0.00214136 0
0.0134861 -0.00653157 0
-0.0230653 -0.00873378 0
-0.0295557 -0.00982457 0
0 0 0
0 0 0
-0.00316729 0.00669096 0
-0.0382542 0.034092 0
0 0 0
0 0 0
-0.0382542 0.034092 0
-0.0375855 -0.0337273 0
-0.00316729 0.00669096 0
-0.0382542 0.034092 0
-0.0105878 0.0269769 0
0.0125297 0.0276785 0
-0.0382542 0.034092 0
-0.0375855 -0.0337273 0
0.0125297 0.0276785 0
0.0144586 -0.0295892 0
-0.0105878 0.0269769 0
0.0125297 0.0276785 0
-0.0114033 0.0369434 0
0.00708815 -0.0297324 0
0.0125297 0.0276785 0
0.0144586 -0.0295892 0
0.00708815 -0.0297324 0
-0.00366929 0.0373828 0
-0.0114033 0.0369434 0
0.00708815 -0.0297324 0
-0.011658 0.0123002 0
-0.00643816 -0.0308906 0
0.00708815 -0.0297324 0
-0.00366929 0.0373828 0
-0.00643816 -0.0308906 0
-0.0206837 0.0668391 0
-0.011658 0.0123002 0
-0.00643816 -0.0308906 0
0.0134861 -0.00653157 0
-0.00990676 0.00867873 0
-0.00643816 -0.0308906 0
-0.0206837 0.0668391 0
-0.00990676 0.00867873 0
-0.0206664 0.0558971 0
0.0134861 -0.00653157 0
-0.00990676 0.00867873 0
-0.0295557 -0.00982457 0
-0.011118 0.0176407 0
-0.00990676 0.00867873 0
-0.0206664 0.0558971 0
-0.011118 0.0176407 0
0.010001 0.0350457 0
0 0 0
0 0 0
-0.0375855 -0.0337273 0
-0.0184461 0.0102916 0
0 0 0
0 0 0
-0.0184461 0.0102916 0
-0.0233163 -0.00371369 0
-0.0375855 -0.0337273 0
-0.0184461 0.0102916 0
0.0144586 -0.0295892 0
-0.0293344 0.0337366 0
-0.0184461 0.0102916 0
-0.0233163 -0.00371369 0
-0.0293344 0.0337366 0
-0.0443004 -0.00232472 0
0.0144586 -0.0295892 0
-0.0293344 0.0337366 0
-0.00366929 0.0373828 0
-0.0284461 0.04663 0
-0.0293344 0.0337366 0
-0.0443004 -0.00232472 0
-0.0284461 0.04663 0
-0.0267891 0.00119928 0
-0.00366929 0.0373828 0
-0.0284461 0.04663 0
-0.0206837 0.0668391 0
-0.00352018 0.0259626 0
-0.0284461 0.04663 0
-0.0267891 0.00119928 0
-0.00352018 0.0259626 0
0.0180012 -0.00505468 0
-0.0206837 0.0668391 0
-0.00352018 0.0259626 0
-0.0206664 0.0558971 0
-0.0161062 0.0114325 0
-0.00352018 0.0259626 0
0.0180012 -0.00505468 0
-0.0161062 0.0114325 0
-0.0159592 -0.0156443 0
-0.0206664 0.0558971 0
-0.0161062 0.0114325 0
0.010001 0.0350457 0
0.0206415 0.0141321 0
-0.0161062 0.0114325 0
-0.0159592 -0.0156443 0
0.0206415 0.0141321 0
0.00590727 -0.00142798 0
0 0 0
0 0 0
-0.0233163 -0.00371369 0
-0.0171073 -0.00410428 0
0 0 0
0 0 0
-0.0171073 -0.00410428 0
-0.00413361 -0.0107568 0
-0.0233163 -0.00371369 0
-0.0171073 -0.00410428 0
-0.0443004 -0.00232472 0
-0.0422979 -0.0157614 0
-0.0171073 -0.00410428 0
-0.00413361 -0.0107568 0
-0.0422979 -0.0157614 0
-0.0286894 -0.0295831 0
-0.0443004 -0.00232472 0
-0.0422979 -0.0157614 0
-0.0267891 0.00119928 0
-0.0303289 -0.0178451 0
-0.0422979 -0.0157614 0
-0.0286894 -0.0295831 0
-0.0303289 -0.0178451 0
-0.0310051 -0.042524 0
-0.0267891 0.00119928 0
-0.0303289 -0.0178451 0
0.0180012 -0.00505468 0
0.010155 0.00122635 0
-0.0303289 -0.0178451 0
-0.0310051 -0.042524 0
0.010155 0.00122635 0
-0.01076 -0.0364832 0
0.0180012 -0.00505468 0
0.010155 0.00122635 0
-0.0159592 -0.0156443 0
-0.00405467 0.00705042 0
0.010155 0.00122635 0
-0.01076 -0.0364832 0
-0.00405467 0.00705042 0
-0.000690187 -0.0218707 0
-0.0159592 -0.0156443 0
-0.00405467 0.00705042 0
0.00590727 -0.00142798 0
0.00164306 -0.0167801 0
-0.00405467 0.00705042 0
-0.000690187 -0.0218707 0
0.00164306 -0.0167801 0
0.00279903 -0.00353124 0
0 0 0
0 0 0
-0.00413361 -0.0107568 0
0.00262681 0.00289063 0
0 0 0
0 0 0
0.00262681 0.00289063 0
0 0 0
-0.00413361 -0.0107568 0
0.00262681 0.00289063 0
-0.0286894 -0.0295831 0
-0.0107797 -0.00690901 0
0.00262681 0.00289063 0
0 0 0
-0.0107797 -0.00690901 0
0 0 0
-0.0286894 -0.0295831 0
-0.0107797 -0.00690901 0
-0.0310051 -0.042524 0
-0.0133117 -0.0355661 0
-0.0107797 -0.00690901 0
0 0 0
-0.0133117 -0.0355661 0
0 0 0
-0.0310051 -0.042524 0
-0.0133117 -0.0355661 0
-0.01076 -0.0364832 0
-0.00996713 -0.0630096 0
-0.0133117 -0.0355661 0
0 0 0
-0.00996713 -0.0630096 0
0 0 0
-0.01076 -0.0364832 0
-0.00996713 -0.0630096 0
-0.000690187 -0.0218707 0
-0.00206374 -0.0771894 0
-0.00996713 -0.0630096 0
0 0 0
-0.00206374 -0.0771894 0
0 0 0
-0.000690187 -0.0218707 0
-0.00206374 -0.0771894 0
0.00279903 -0.00353124 0
-0.00526132 -0.0857385 0
-0.00206374 -0.0771894 0
0 0 0
-0.00526132 -0.0857385 0
0 0 0
0.176988 0.00783842 0
0.176898 0.00760541 0
0.181476 0.00718951 0
0.171422 0.0057571 0
0.176898 0.00760541 0
0.131257 0.0033564 0
0.171422 0.0057571 0
0.130097 0.00261539 0
0.181476 0.00718951 0
0.171422 0.0057571 0
0.183183 0.00478849 0
0.168124 0.0037549 0
0.171422 0.0057571 0
0.130097 0.00261539 0
0.168124 0.0037549 0
0.128975 0.00184667 0
0.165731 0.00679058 0
0.107586 0.00597458 0
0.161722 0.00664179 0
0.110148 0.00578055 0
0.107586 0.00597458 0
0.227574 4.24667e-07 0
0.110148 0.00578055 0
0.214995 4.11433e-07 0
0.161722 0.00664179 0
0.110148 0.00578055 0
0.157718 0.00657418 0
0.112276 0.00528316 0
0.110148 0.00578055 0
0.214995 4.11433e-07 0
0.112276 0.00528316 0
0.203512 6.39641e-07 0
0.157718 0.00657418 0
0.112276 0.00528316 0
0.153628 0.00621869 0
0.11423 0.00503319 0
0.112276 0.00528316 0
0.203512 6.39641e-07 0
0.11423 0.00503319 0
0.192935 8.60941e-07 0
0.153628 0.00621869 0
0.11423 0.00503319 0
0.149996 0.00565729 0
0.115925 0.0045554 0
0.11423 0.00503319 0
0.192935 8.60941e-07 0
0.115925 0.0045554 0
0.183255 1.7237e-06 0
0.149996 0.00565729 0
0.115925 0.0045554 0
0.146817 0.00528146 0
0.117336 0.00432322 0
0.115925 0.0045554 0
0.183255 1.7237e-06 0
0.117336 0.00432322 0
0.174487 2.67132e-06 0
0.146817 0.00528146 0
0.117336 0.00432322 0
0.143945 0.00513382 0
0.118428 0.0039178 0
0.117336 0.00432322 0
0.174487 2.67132e-06 0
0.118428 0.0039178 0
0.166628 3.59632e-06 0
0.143945 0.00513382 0
0.118428 0.0039178 0
0.141336 0.00494984 0
0.11916 0.00386331 0
0.118428 0.0039178 0
0.166628 3.59632e-06 0
0.11916 0.00386331 0
0.159587 4.32873e-06 0
0.141336 0.00494984 0
0.11916 0.00386331 0
0.138955 0.00477955 0
0.119544 0.00344488 0
0.11916 0.00386331 0
0.159587 4.32873e-06 0
0.119544 0.00344488 0
0.153225 4.50664e-06 0
0.138955 0.00477955 0
0.119544 0.00344488 0
0.136773 0.00455687 0
0.119578 0.00346448 0
0.119544 0.00344488 0
0.153225 4.50664e-06 0
0.119578 0.00346448 0
0.147526 5.92936e-06 0
0.136773 0.00455687 0
0.119578 0.00346448 0
0.134692 0.00477264 0
0.119328 0.00310272 0
0.119578 0.00346448 0
0.147526 5.92936e-06 0
0.119328 0.00310272 0
0.142499 6.00751e-06 0
0.134692 0.00477264 0
0.119328 0.00310272 0
0.132785 0.00411149 0
0.118948 0.00310198 0
0.119328 0.00310272 0
0.142499 6.00751e-06 0
0.118948 0.00310198 0
0.137994 3.91777e-06 0
0.132785 0.00411149 0
0.118948 0.00310198 0
0.131257 0.0033564 0
0.118612 0.00236732 0
0.118948 0.00310198 0