# vtk DataFile Version 3.0
#This file was generated by the deal.II library on 2026/3/26 at 11:23:31
ASCII
DATASET UNSTRUCTURED_GRID

POINTS 8784 double
0 0 0
0.214286 0 0
0 0.25 0
0.214286 0.25 0
0 0.25 0
0.214286 0.25 0
0 0.5 0
0.214286 0.5 0
0.214286 0 0
0.428571 0 0
0.214286 0.25 0
0.428571 0.25 0
0.214286 0.25 0
0.428571 0.25 0
0.214286 0.5 0
0.428571 0.5 0
0 3 0
0 2.75 0
0.214286 3 0
0.214286 2.75 0
0.214286 3 0
0.214286 2.75 0
0.428571 3 0
0.428571 2.75 0
0 2.75 0
0 2.5 0
0.214286 2.75 0
0.214286 2.5 0
0.214286 2.75 0
0.214286 2.5 0
0.428571 2.75 0
0.428571 2.5 0
0.857143 0.75 0
0.964286 0.75 0
0.857143 0.875 0
0.964286 0.875 0
0.964286 0.75 0
1.07143 0.75 0
0.964286 0.875 0
1.07143 0.875 0
0.857143 0.875 0
0.964286 0.875 0
0.857143 1 0
0.964286 1 0
0.964286 0.875 0
1.07143 0.875 0
0.964286 1 0
1.07143 1 0
1.07143 0.75 0
1.17857 0.75 0
1.07143 0.875 0
1.17857 0.875 0
1.17857 0.75 0
1.28571 0.75 0
1.17857 0.875 0
1.28571 0.875 0
1.07143 0.875 0
1.17857 0.875 0
1.07143 1 0
1.17857 1 0
1.17857 0.875 0
1.28571 0.875 0
1.17857 1 0
1.28571 1 0
0.857143 2 0
0.857143 1.875 0
0.964286 2 0
0.964286 1.875 0
0.857143 1.875 0
0.857143 1.75 0
0.964286 1.875 0
0.964286 1.75 0
0.964286 2 0
0.964286 1.875 0
1.07143 2 0
1.07143 1.875 0
0.964286 1.875 0
0.964286 1.75 0
1.07143 1.875 0
1.07143 1.75 0
1.07143 2 0
1.07143 1.875 0
1.17857 2 0
1.17857 1.875 0
1.07143 1.875 0
1.07143 1.75 0
1.17857 1.875 0
1.17857 1.75 0
1.17857 2 0
1.17857 1.875 0
1.28571 2 0
1.28571 1.875 0
1.17857 1.875 0
1.17857 1.75 0
1.28571 1.875 0
1.28571 1.75 0
0.857143 1.25 0
0.857143 1.125 0
0.964286 1.25 0
0.964286 1.125 0
0.857143 1.125 0
0.857143 1 0
0.964286 1.125 0
0.964286 1 0
0.964286 1.25 0
0.964286 1.125 0
1.07143 1.25 0
1.07143 1.125 0
0.964286 1.125 0
0.964286 1 0
1.07143 1.125 0
1.07143 1 0
1.07143 1.25 0
1.07143 1.125 0
1.17857 1.25 0
1.17857 1.125 0
1.07143 1.125 0
1.07143 1 0
1.17857 1.125 0
1.17857 1 0
1.17857 1.25 0
1.17857 1.125 0
1.28571 1.25 0
1.28571 1.125 0
1.17857 1.125 0
1.17857 1 0
1.28571 1.125 0
1.28571 1 0
0.857143 2.25 0
0.857143 2.125 0
0.964286 2.25 0
0.964286 2.125 0
0.857143 2.125 0
0.857143 2 0
0.964286 2.125 0
0.964286 2 0
0.964286 2.25 0
0.964286 2.125 0
1.07143 2.25 0
1.07143 2.125 0
0.964286 2.125 0
0.964286 2 0
1.07143 2.125 0
1.07143 2 0
1.07143 2.25 0
1.07143 2.125 0
1.17857 2.25 0
1.17857 2.125 0
1.07143 2.125 0
1.07143 2 0
1.17857 2.125 0
1.17857 2 0
1.17857 2.25 0
1.17857 2.125 0
1.28571 2.25 0
1.28571 2.125 0
1.17857 2.125 0
1.17857 2 0
1.28571 2.125 0
1.28571 2 0
0 0.5 0
0.107143 0.5 0
0 0.625 0
0.107143 0.625 0
0.107143 0.5 0
0.214286 0.5 0
0.107143 0.625 0
0.214286 0.625 0
0 0.625 0
0.107143 0.625 0
0 0.75 0
0.107143 0.75 0
0.107143 0.625 0
0.214286 0.625 0
0.107143 0.75 0
0.214286 0.75 0
0.214286 0.5 0
0.321429 0.5 0
0.214286 0.625 0
0.321429 0.625 0
0.321429 0.5 0
0.428571 0.5 0
0.321429 0.625 0
0.428571 0.625 0
0.214286 0.625 0
0.321429 0.625 0
0.214286 0.75 0
0.321429 0.75 0
0.321429 0.625 0
0.428571 0.625 0
0.321429 0.75 0
0.428571 0.75 0
2.57143 0 0
2.67857 0 0
2.57143 0.125 0
2.67857 0.125 0
2.67857 0 0
2.78571 0 0
2.67857 0.125 0
2.78571 0.125 0
2.57143 0.125 0
2.67857 0.125 0
2.57143 0.25 0
2.67857 0.25 0
2.67857 0.125 0
2.78571 0.125 0
2.67857 0.25 0
2.78571 0.25 0
2.78571 0 0
2.89286 0 0
2.78571 0.125 0
2.89286 0.125 0
2.89286 0 0
3 0 0
2.89286 0.125 0
3 0.125 0
2.78571 0.125 0
2.89286 0.125 0
2.78571 0.25 0
2.89286 0.25 0
2.89286 0.125 0
3 0.125 0
2.89286 0.25 0
3 0.25 0
0.857143 1.75 0
0.857143 1.625 0
0.964286 1.75 0
0.964286 1.625 0
0.857143 1.625 0
0.857143 1.5 0
0.964286 1.625 0
0.964286 1.5 0
0.964286 1.75 0
0.964286 1.625 0
1.07143 1.75 0
1.07143 1.625 0
0.964286 1.625 0
0.964286 1.5 0
1.07143 1.625 0
1.07143 1.5 0
1.07143 1.75 0
1.07143 1.625 0
1.17857 1.75 0
1.17857 1.625 0
1.07143 1.625 0
1.07143 1.5 0
1.17857 1.625 0
1.17857 1.5 0
1.17857 1.75 0
1.17857 1.625 0
1.28571 1.75 0
1.28571 1.625 0
1.17857 1.625 0
1.17857 1.5 0
1.28571 1.625 0
1.28571 1.5 0
1.28571 1.75 0
1.28571 1.625 0
1.39286 1.75 0
1.39286 1.625 0
1.28571 1.625 0
1.28571 1.5 0
1.39286 1.625 0
1.39286 1.5 0
1.39286 1.75 0
1.39286 1.625 0
1.5 1.75 0
1.5 1.625 0
1.39286 1.625 0
1.39286 1.5 0
1.5 1.625 0
1.5 1.5 0
1.5 1.75 0
1.5 1.625 0
1.60714 1.75 0
1.60714 1.625 0
1.5 1.625 0
1.5 1.5 0
1.60714 1.625 0
1.60714 1.5 0
1.60714 1.75 0
1.60714 1.625 0
1.71429 1.75 0
1.71429 1.625 0
1.60714 1.625 0
1.60714 1.5 0
1.71429 1.625 0
1.71429 1.5 0
1.71429 1.75 0
1.71429 1.625 0
1.82143 1.75 0
1.82143 1.625 0
1.71429 1.625 0
1.71429 1.5 0
1.82143 1.625 0
1.82143 1.5 0
1.82143 1.75 0
1.82143 1.625 0
1.92857 1.75 0
1.92857 1.625 0
1.82143 1.625 0
1.82143 1.5 0
1.92857 1.625 0
1.92857 1.5 0
1.92857 1.75 0
1.92857 1.625 0
2.03571 1.75 0
2.03571 1.625 0
1.92857 1.625 0
1.92857 1.5 0
2.03571 1.625 0
2.03571 1.5 0
2.03571 1.75 0
2.03571 1.625 0
2.14286 1.75 0
2.14286 1.625 0
2.03571 1.625 0
2.03571 1.5 0
2.14286 1.625 0
2.14286 1.5 0
2.14286 1.75 0
2.14286 1.625 0
2.25 1.75 0
2.25 1.625 0
2.14286 1.625 0
2.14286 1.5 0
2.25 1.625 0
2.25 1.5 0
2.25 1.75 0
2.25 1.625 0
2.35714 1.75 0
2.35714 1.625 0
2.25 1.625 0
2.25 1.5 0
2.35714 1.625 0
2.35714 1.5 0
1.07143 1.5 0
1.07143 1.375 0
1.17857 1.5 0
1.17857 1.375 0
1.07143 1.375 0
1.07143 1.25 0
1.17857 1.375 0
1.17857 1.25 0
1.17857 1.5 0
1.17857 1.375 0
1.28571 1.5 0
1.28571 1.375 0
1.17857 1.375 0
1.17857 1.25 0
1.28571 1.375 0
1.28571 1.25 0
1.28571 1.5 0
1.28571 1.375 0
1.39286 1.5 0
1.39286 1.375 0
1.28571 1.375 0
1.28571 1.25 0
1.39286 1.375 0
1.39286 1.25 0
1.39286 1.5 0
1.39286 1.375 0
1.5 1.5 0
1.5 1.375 0
1.39286 1.375 0
1.39286 1.25 0
1.5 1.375 0
1.5 1.25 0
1.5 1.5 0
1.5 1.375 0
1.60714 1.5 0
1.60714 1.375 0
1.5 1.375 0
1.5 1.25 0
1.60714 1.375 0
1.60714 1.25 0
1.60714 1.5 0
1.60714 1.375 0
1.71429 1.5 0
1.71429 1.375 0
1.60714 1.375 0
1.60714 1.25 0
1.71429 1.375 0
1.71429 1.25 0
1.71429 1.5 0
1.71429 1.375 0
1.82143 1.5 0
1.82143 1.375 0
1.71429 1.375 0
1.71429 1.25 0
1.82143 1.375 0
1.82143 1.25 0
1.82143 1.5 0
1.82143 1.375 0
1.92857 1.5 0
1.92857 1.375 0
1.82143 1.375 0
1.82143 1.25 0
1.92857 1.375 0
1.92857 1.25 0
1.92857 1.5 0
1.92857 1.375 0
2.03571 1.5 0
2.03571 1.375 0
1.92857 1.375 0
1.92857 1.25 0
2.03571 1.375 0
2.03571 1.25 0
2.03571 1.5 0
2.03571 1.375 0
2.14286 1.5 0
2.14286 1.375 0
2.03571 1.375 0
2.03571 1.25 0
2.14286 1.375 0
2.14286 1.25 0
2.14286 1.5 0
2.14286 1.375 0
2.25 1.5 0
2.25 1.375 0
2.14286 1.375 0
2.14286 1.25 0
2.25 1.375 0
2.25 1.25 0
2.25 1.5 0
2.25 1.375 0
2.35714 1.5 0
2.35714 1.375 0
2.25 1.375 0
2.25 1.25 0
2.35714 1.375 0
2.35714 1.25 0
2.57143 3 0
2.57143 2.875 0
2.67857 3 0
2.67857 2.875 0
2.57143 2.875 0
2.57143 2.75 0
2.67857 2.875 0
2.67857 2.75 0
2.67857 3 0
2.67857 2.875 0
2.78571 3 0
2.78571 2.875 0
2.67857 2.875 0
2.67857 2.75 0
2.78571 2.875 0
2.78571 2.75 0
2.78571 3 0
2.78571 2.875 0
2.89286 3 0
2.89286 2.875 0
2.78571 2.875 0
2.78571 2.75 0
2.89286 2.875 0
2.89286 2.75 0
2.89286 3 0
2.89286 2.875 0
3 3 0
3 2.875 0
2.89286 2.875 0
2.89286 2.75 0
3 2.875 0
3 2.75 0
0 2.5 0
0 2.375 0
0.107143 2.5 0
0.107143 2.375 0
0 2.375 0
0 2.25 0
0.107143 2.375 0
0.107143 2.25 0
0.107143 2.5 0
0.107143 2.375 0
0.214286 2.5 0
0.214286 2.375 0
0.107143 2.375 0
0.107143 2.25 0
0.214286 2.375 0
0.214286 2.25 0
0.214286 2.5 0
0.214286 2.375 0
0.321429 2.5 0
0.321429 2.375 0
0.214286 2.375 0
0.214286 2.25 0
0.321429 2.375 0
0.321429 2.25 0
0.321429 2.5 0
0.321429 2.375 0
0.428571 2.5 0
0.428571 2.375 0
0.321429 2.375 0
0.321429 2.25 0
0.428571 2.375 0
0.428571 2.25 0
0.428571 0 0
0.535714 0 0
0.428571 0.125 0
0.535714 0.125 0
0.535714 0 0
0.642857 0 0
0.535714 0.125 0
0.642857 0.125 0
0.428571 0.125 0
0.535714 0.125 0
0.428571 0.25 0
0.535714 0.25 0
0.535714 0.125 0
0.642857 0.125 0
0.535714 0.25 0
0.642857 0.25 0
0.428571 0.25 0
0.535714 0.25 0
0.428571 0.375 0
0.535714 0.375 0
0.535714 0.25 0
0.642857 0.25 0
0.535714 0.375 0
0.642857 0.375 0
0.428571 0.375 0
0.535714 0.375 0
0.428571 0.5 0
0.535714 0.5 0
0.535714 0.375 0
0.642857 0.375 0
0.535714 0.5 0
0.642857 0.5 0
0.428571 0.5 0
0.535714 0.5 0
0.428571 0.625 0
0.535714 0.625 0
0.535714 0.5 0
0.642857 0.5 0
0.535714 0.625 0
0.642857 0.625 0
0.428571 0.625 0
0.535714 0.625 0
0.428571 0.75 0
0.535714 0.75 0
0.535714 0.625 0
0.642857 0.625 0
0.535714 0.75 0
0.642857 0.75 0
0.642857 0 0
0.75 0 0
0.642857 0.125 0
0.75 0.125 0
0.75 0 0
0.857143 0 0
0.75 0.125 0
0.857143 0.125 0
0.642857 0.125 0
0.75 0.125 0
0.642857 0.25 0
0.75 0.25 0
0.75 0.125 0
0.857143 0.125 0
0.75 0.25 0
0.857143 0.25 0
0.642857 0.25 0
0.75 0.25 0
0.642857 0.375 0
0.75 0.375 0
0.75 0.25 0
0.857143 0.25 0
0.75 0.375 0
0.857143 0.375 0
0.642857 0.375 0
0.75 0.375 0
0.642857 0.5 0
0.75 0.5 0
0.75 0.375 0
0.857143 0.375 0
0.75 0.5 0
0.857143 0.5 0
0.642857 0.5 0
0.75 0.5 0
0.642857 0.625 0
0.75 0.625 0
0.75 0.5 0
0.857143 0.5 0
0.75 0.625 0
0.857143 0.625 0
0.642857 0.625 0
0.75 0.625 0
0.642857 0.75 0
0.75 0.75 0
0.75 0.625 0
0.857143 0.625 0
0.75 0.75 0
0.857143 0.75 0
0.857143 0 0
0.964286 0 0
0.857143 0.125 0
0.964286 0.125 0
0.964286 0 0
1.07143 0 0
0.964286 0.125 0
1.07143 0.125 0
0.857143 0.125 0
0.964286 0.125 0
0.857143 0.25 0
0.964286 0.25 0
0.964286 0.125 0
1.07143 0.125 0
0.964286 0.25 0
1.07143 0.25 0
0.857143 0.25 0
0.964286 0.25 0
0.857143 0.375 0
0.964286 0.375 0
0.964286 0.25 0
1.07143 0.25 0
0.964286 0.375 0
1.07143 0.375 0
0.857143 0.375 0
0.964286 0.375 0
0.857143 0.5 0
0.964286 0.5 0
0.964286 0.375 0
1.07143 0.375 0
0.964286 0.5 0
1.07143 0.5 0
0.857143 0.5 0
0.964286 0.5 0
0.857143 0.625 0
0.964286 0.625 0
0.964286 0.5 0
1.07143 0.5 0
0.964286 0.625 0
1.07143 0.625 0
0.857143 0.625 0
0.964286 0.625 0
0.857143 0.75 0
0.964286 0.75 0
0.964286 0.625 0
1.07143 0.625 0
0.964286 0.75 0
1.07143 0.75 0
1.07143 0 0
1.17857 0 0
1.07143 0.125 0
1.17857 0.125 0
1.17857 0 0
1.28571 0 0
1.17857 0.125 0
1.28571 0.125 0
1.07143 0.125 0
1.17857 0.125 0
1.07143 0.25 0
1.17857 0.25 0
1.17857 0.125 0
1.28571 0.125 0
1.17857 0.25 0
1.28571 0.25 0
1.07143 0.25 0
1.17857 0.25 0
1.07143 0.375 0
1.17857 0.375 0
1.17857 0.25 0
1.28571 0.25 0
[...]
POINT_DATA 8784
VECTORS velocity double
0 0 0
0 0 0
0 0 0
-0.0140216 0.0431377 0
0 0 0
-0.0140216 0.0431377 0
0 0 0
0.105808 -0.0291682 0
0 0 0
0 0 0
-0.0140216 0.0431377 0
0.00913943 -0.0672503 0
-0.0140216 0.0431377 0
0.00913943 -0.0672503 0
0.105808 -0.0291682 0
-0.00911442 0.0920492 0
0 0 0
0 0 0
0 0 0
0.128674 0.163574 0
0 0 0
0.128674 0.163574 0
0 0 0
0.22302 -0.0521148 0
0 0 0
0 0 0
0.128674 0.163574 0
0.000482128 0.30174 0
0.128674 0.163574 0
0.000482128 0.30174 0
0.22302 -0.0521148 0
-0.0195477 -0.0873241 0
0.133522 0.00734036 0
0.206709 -0.00828597 0
-0.248392 -0.0153764 0
-0.167821 -0.161541 0
0.206709 -0.00828597 0
0.0613272 -0.0479749 0
-0.167821 -0.161541 0
-0.175719 0.271247 0
-0.248392 -0.0153764 0
-0.167821 -0.161541 0
0.32761 0.0907893 0
0.206506 -0.209877 0
-0.167821 -0.161541 0
-0.175719 0.271247 0
0.206506 -0.209877 0
0.291966 0.241741 0
0.0613272 -0.0479749 0
0.317516 -0.206984 0
-0.175719 0.271247 0
-0.440385 -0.550486 0
0.317516 -0.206984 0
0.434693 0.194366 0
-0.440385 -0.550486 0
-0.187336 0.112468 0
-0.175719 0.271247 0
-0.440385 -0.550486 0
0.291966 0.241741 0
0.383047 -0.335387 0
-0.440385 -0.550486 0
-0.187336 0.112468 0
0.383047 -0.335387 0
0.190364 -0.118321 0
0.269325 0.110167 0
0.0408522 0.0471454 0
0.223508 0.0532182 0
0.0140212 0.00697884 0
0.0408522 0.0471454 0
0.173058 0.0822899 0
0.0140212 0.00697884 0
0.247362 0.0465032 0
0.223508 0.0532182 0
0.0140212 0.00697884 0
0.216458 0.0264232 0
-0.0292399 0.00749591 0
0.0140212 0.00697884 0
0.247362 0.0465032 0
-0.0292399 0.00749591 0
0.246206 -0.0686355 0
0.216458 0.0264232 0
-0.0292399 0.00749591 0
0.205029 -0.0227044 0
-0.0280596 -0.0151195 0
-0.0292399 0.00749591 0
0.246206 -0.0686355 0
-0.0280596 -0.0151195 0
0.0698972 -0.12737 0
0.205029 -0.0227044 0
-0.0280596 -0.0151195 0
0.191923 -0.0582042 0
0.0170605 -0.026228 0
-0.0280596 -0.0151195 0
0.0698972 -0.12737 0
0.0170605 -0.026228 0
-0.11165 -0.0739491 0
0.184443 -0.017649 0
0.220719 0.00329115 0
0.158068 0.0155432 0
0.245458 -0.0263655 0
0.220719 0.00329115 0
0.32761 0.0907893 0
0.245458 -0.0263655 0
0.206506 -0.209877 0
0.158068 0.0155432 0
0.245458 -0.0263655 0
0.0656392 0.0352771 0
0.23501 -0.0349181 0
0.245458 -0.0263655 0
0.206506 -0.209877 0
0.23501 -0.0349181 0
0.291966 0.241741 0
0.0656392 0.0352771 0
0.23501 -0.0349181 0
-0.0177298 0.0478411 0
0.154526 -0.0903133 0
0.23501 -0.0349181 0
0.291966 0.241741 0
0.154526 -0.0903133 0
0.383047 -0.335387 0
-0.0177298 0.0478411 0
0.154526 -0.0903133 0
-0.0437178 0.0770608 0
0.0270363 0.0186092 0
0.154526 -0.0903133 0
0.383047 -0.335387 0
0.0270363 0.0186092 0
0.190364 -0.118321 0
0.464014 -0.230559 0
-0.179959 0.00716417 0
0.551772 -0.00622774 0
-0.0149683 0.0246045 0
-0.179959 0.00716417 0
0.269325 0.110167 0
-0.0149683 0.0246045 0
0.223508 0.0532182 0
0.551772 -0.00622774 0
-0.0149683 0.0246045 0
0.403635 0.130148 0
0.0471655 -0.0179129 0
-0.0149683 0.0246045 0
0.223508 0.0532182 0
0.0471655 -0.0179129 0
0.216458 0.0264232 0
0.403635 0.130148 0
0.0471655 -0.0179129 0
0.22566 0.234896 0
-0.0174331 0.121051 0
0.0471655 -0.0179129 0
0.216458 0.0264232 0
-0.0174331 0.121051 0
0.205029 -0.0227044 0
0.22566 0.234896 0
-0.0174331 0.121051 0
-0.0191419 -0.0989289 0
0.025545 -0.219771 0
-0.0174331 0.121051 0
0.205029 -0.0227044 0
0.025545 -0.219771 0
0.191923 -0.0582042 0
0 0 0
0.0323491 -0.0512614 0
0 0 0
0.0957242 -0.197016 0
0.0323491 -0.0512614 0
0.105808 -0.0291682 0
0.0957242 -0.197016 0
0.099983 -0.00652646 0
0 0 0
0.0957242 -0.197016 0
0 0 0
-0.0828498 -0.175689 0
0.0957242 -0.197016 0
0.099983 -0.00652646 0
-0.0828498 -0.175689 0
-0.275625 0.188629 0
0.105808 -0.0291682 0
0.11972 0.0523915 0
0.099983 -0.00652646 0
0.136344 -0.00227926 0
0.11972 0.0523915 0
-0.00911442 0.0920492 0
0.136344 -0.00227926 0
0.178862 0.237373 0
0.099983 -0.00652646 0
0.136344 -0.00227926 0
-0.275625 0.188629 0
-0.304329 -0.19052 0
0.136344 -0.00227926 0
0.178862 0.237373 0
-0.304329 -0.19052 0
-0.27373 0.321021 0
0 0 0
0 0 0
-0.224608 0.120195 0
-0.328929 0.010339 0
0 0 0
0 0 0
-0.328929 0.010339 0
-0.269858 -0.083857 0
-0.224608 0.120195 0
-0.328929 0.010339 0
-0.0790981 0.0432681 0
0.0305468 0.0864043 0
-0.328929 0.010339 0
-0.269858 -0.083857 0
0.0305468 0.0864043 0
-0.0174587 -0.160296 0
0 0 0
0 0 0
-0.269858 -0.083857 0
-0.110124 -0.133918 0
0 0 0
0 0 0
-0.110124 -0.133918 0
0 0 0
-0.269858 -0.083857 0
-0.110124 -0.133918 0
-0.0174587 -0.160296 0
-0.0259825 -0.243782 0
-0.110124 -0.133918 0
0 0 0
-0.0259825 -0.243782 0
0 0 0
0.173058 0.0822899 0
0.0824656 0.0776027 0
0.247362 0.0465032 0
0.107393 0.155686 0
0.0824656 0.0776027 0
-0.139399 -0.145068 0
0.107393 0.155686 0
-0.317247 0.198798 0
0.247362 0.0465032 0
0.107393 0.155686 0
0.246206 -0.0686355 0
0.201556 -0.0943357 0
0.107393 0.155686 0
-0.317247 0.198798 0
0.201556 -0.0943357 0
-0.303422 0.0030964 0
0.246206 -0.0686355 0
0.201556 -0.0943357 0
0.0698972 -0.12737 0
0.226401 -0.289292 0
0.201556 -0.0943357 0
-0.303422 0.0030964 0
0.226401 -0.289292 0
-0.160022 -0.194627 0
0.0698972 -0.12737 0
0.226401 -0.289292 0
-0.11165 -0.0739491 0
0.374539 0.0593028 0
0.226401 -0.289292 0
-0.160022 -0.194627 0
0.374539 0.0593028 0
-0.177748 0.0943948 0
-0.11165 -0.0739491 0
0.374539 0.0593028 0
-0.0880495 0.0162235 0
0.383141 -0.0467771 0
0.374539 0.0593028 0
-0.177748 0.0943948 0
0.383141 -0.0467771 0
-0.204405 -0.142657 0
-0.0880495 0.0162235 0
0.383141 -0.0467771 0
0.142612 0.0539665 0
0.319946 0.336737 0
0.383141 -0.0467771 0
-0.204405 -0.142657 0
0.319946 0.336737 0
-0.289378 0.223013 0
0.142612 0.0539665 0
0.319946 0.336737 0
0.30228 -0.0500188 0
0.409223 -0.02568 0
0.319946 0.336737 0
-0.289378 0.223013 0
0.409223 -0.02568 0
-0.412512 0.0370808 0
0.30228 -0.0500188 0
0.409223 -0.02568 0
0.224951 -0.0795446 0
0.356724 -0.255677 0
0.409223 -0.02568 0
-0.412512 0.0370808 0
0.356724 -0.255677 0
-0.242874 -0.191226 0
0.224951 -0.0795446 0
0.356724 -0.255677 0
0.0934631 0.0365624 0
0.320817 0.00103017 0
0.356724 -0.255677 0
-0.242874 -0.191226 0
0.320817 0.00103017 0
-0.112431 0.0323558 0
0.0934631 0.0365624 0
0.320817 0.00103017 0
0.12535 0.0964287 0
0.320877 0.165879 0
0.320817 0.00103017 0
-0.112431 0.0323558 0
0.320877 0.165879 0
-0.146632 0.0828701 0
0.12535 0.0964287 0
0.320877 0.165879 0
0.244761 0.105309 0
0.0671757 -0.12258 0
0.320877 0.165879 0
-0.146632 0.0828701 0
0.0671757 -0.12258 0
-0.0161818 -0.193309 0
0.244761 0.105309 0
0.0671757 -0.12258 0
0.37302 0.137501 0
-0.227402 0.157659 0
0.0671757 -0.12258 0
-0.0161818 -0.193309 0
-0.227402 0.157659 0
0.120493 0.0348065 0
0.37302 0.137501 0
-0.227402 0.157659 0
0.444662 0.128497 0
-0.36074 0.0379715 0
-0.227402 0.157659 0
0.120493 0.0348065 0
-0.36074 0.0379715 0
0.122568 0.0106653 0
0.444662 0.128497 0
-0.36074 0.0379715 0
0.356933 -0.0520788 0
-0.532238 -0.263983 0
-0.36074 0.0379715 0
0.122568 0.0106653 0
-0.532238 -0.263983 0
0.342545 -0.174746 0
-0.303422 0.0030964 0
0.429505 0.0439902 0
-0.160022 -0.194627 0
0.520963 0.00948617 0
0.429505 0.0439902 0
0.0656392 0.0352771 0
0.520963 0.00948617 0
-0.0177298 0.0478411 0
-0.160022 -0.194627 0
0.520963 0.00948617 0
-0.177748 0.0943948 0
0.627329 -0.000950046 0
0.520963 0.00948617 0
-0.0177298 0.0478411 0
0.627329 -0.000950046 0
-0.0437178 0.0770608 0
-0.177748 0.0943948 0
0.627329 -0.000950046 0
-0.204405 -0.142657 0
0.651239 -0.0479803 0
0.627329 -0.000950046 0
-0.0437178 0.0770608 0
0.651239 -0.0479803 0
0.0279313 -0.011429 0
-0.204405 -0.142657 0
0.651239 -0.0479803 0
-0.289378 0.223013 0
0.535474 -0.0825119 0
0.651239 -0.0479803 0
0.0279313 -0.011429 0
0.535474 -0.0825119 0
0.167379 -0.0891848 0
-0.289378 0.223013 0
0.535474 -0.0825119 0
-0.412512 0.0370808 0
0.317245 -0.0300735 0
0.535474 -0.0825119 0
0.167379 -0.0891848 0
0.317245 -0.0300735 0
0.346094 -0.0864126 0
-0.412512 0.0370808 0
0.317245 -0.0300735 0
-0.242874 -0.191226 0
0.205857 -0.0282374 0
0.317245 -0.0300735 0
0.346094 -0.0864126 0
0.205857 -0.0282374 0
0.431018 -0.0347399 0
-0.242874 -0.191226 0
0.205857 -0.0282374 0
-0.112431 0.0323558 0
0.269947 0.136515 0
0.205857 -0.0282374 0
0.431018 -0.0347399 0
0.269947 0.136515 0
0.3151 0.0532525 0
-0.112431 0.0323558 0
0.269947 0.136515 0
-0.146632 0.0828701 0
0.386833 0.112784 0
0.269947 0.136515 0
0.3151 0.0532525 0
0.386833 0.112784 0
0.0950225 0.0524204 0
-0.146632 0.0828701 0
0.386833 0.112784 0
-0.0161818 -0.193309 0
0.471731 0.0333617 0
0.386833 0.112784 0
0.0950225 0.0524204 0
0.471731 0.0333617 0
-0.0332811 0.0189531 0
-0.0161818 -0.193309 0
0.471731 0.0333617 0
0.120493 0.0348065 0
0.489247 0.00543191 0
0.471731 0.0333617 0
-0.0332811 0.0189531 0
0.489247 0.00543191 0
-0.068814 -0.00955711 0
0.120493 0.0348065 0
0.489247 0.00543191 0
0.122568 0.0106653 0
0.49683 0.0645083 0
0.489247 0.00543191 0
-0.068814 -0.00955711 0
0.49683 0.0645083 0
-0.076575 0.063509 0
0.122568 0.0106653 0
0.49683 0.0645083 0
0.342545 -0.174746 0
0.561858 0.113026 0
0.49683 0.0645083 0
-0.076575 0.063509 0
0.561858 0.113026 0
-0.223665 0.000281112 0
0 0 0
-0.0816776 -0.11764 0
0 0 0
-0.263568 -0.0829472 0
-0.0816776 -0.11764 0
0.130593 -0.118273 0
-0.263568 -0.0829472 0
0.224956 -0.200737 0
0 0 0
-0.263568 -0.0829472 0
0 0 0
-0.381023 -0.0101157 0
-0.263568 -0.0829472 0
0.224956 -0.200737 0
-0.381023 -0.0101157 0
0.271654 0.0606662 0
0 0 0
-0.381023 -0.0101157 0
0 0 0
-0.188993 0.277167 0
-0.381023 -0.0101157 0
0.271654 0.0606662 0
-0.188993 0.277167 0
0.183785 0.26595 0
0 0 0
-0.188993 0.277167 0
0 0 0
0 0 0
-0.188993 0.277167 0
0.183785 0.26595 0
0 0 0
0 0 0
0 0 0
0 0 0
0.00393232 0.153668 0
-0.0684148 0.0674577 0
0 0 0
0 0 0
-0.0684148 0.0674577 0
0.0842082 0.0754297 0
0.00393232 0.153668 0
-0.0684148 0.0674577 0
0.000482128 0.30174 0
-0.18995 0.239786 0
-0.0684148 0.0674577 0
0.0842082 0.0754297 0
-0.18995 0.239786 0
-0.116206 -0.139955 0
0.000482128 0.30174 0
-0.18995 0.239786 0
-0.0131301 0.087485 0
-0.130386 0.192679 0
-0.18995 0.239786 0
-0.116206 -0.139955 0
-0.130386 0.192679 0
-0.447757 0.232309 0
-0.0131301 0.087485 0
-0.130386 0.192679 0
-0.0195477 -0.0873241 0
-0.101149 -0.127795 0
-0.130386 0.192679 0
-0.447757 0.232309 0
-0.101149 -0.127795 0
-0.469378 -0.111024 0
0 0 0
0 0 0
-0.00837376 -0.016434 0
0.0513793 -0.0385206 0
0 0 0
0 0 0
0.0513793 -0.0385206 0
0.0260627 0.0919367 0
-0.00837376 -0.016434 0
0.0513793 -0.0385206 0
0.00913943 -0.0672503 0
0.0217852 -0.0782212 0
0.0513793 -0.0385206 0
0.0260627 0.0919367 0
0.0217852 -0.0782212 0
-0.0206577 0.203361 0
0.00913943 -0.0672503 0
0.0217852 -0.0782212 0
-0.00215673 -0.0621042 0
-0.100951 0.0269413 0
0.0217852 -0.0782212 0
-0.0206577 0.203361 0
-0.100951 0.0269413 0
-0.0824803 0.11862 0
-0.00215673 -0.0621042 0
-0.100951 0.0269413 0
-0.00911442 0.0920492 0
-0.0561086 0.0719125 0
-0.100951 0.0269413 0
-0.0824803 0.11862 0
-0.0561086 0.0719125 0
-0.000423656 0.00301948 0
-0.00911442 0.0920492 0
-0.0561086 0.0719125 0
0.178862 0.237373 0
0.0754388 0.103797 0
-0.0561086 0.0719125 0
-0.000423656 0.00301948 0
0.0754388 0.103797 0
0.00556443 -0.00592719 0
0.178862 0.237373 0
0.0754388 0.103797 0
-0.27373 0.321021 0
-0.166346 0.0239911 0
0.0754388 0.103797 0
0.00556443 -0.00592719 0
-0.166346 0.0239911 0
-0.0823683 0.0459029 0
0 0 0
0 0 0
0.0260627 0.0919367 0
-0.101272 0.081396 0
0 0 0
0 0 0
-0.101272 0.081396 0
-0.168288 0.010164 0
0.0260627 0.0919367 0
-0.101272 0.081396 0
-0.0206577 0.203361 0
0.0115445 0.0844699 0
-0.101272 0.081396 0
-0.168288 0.010164 0
0.0115445 0.0844699 0
-0.000908861 0.0709513 0
-0.0206577 0.203361 0
0.0115445 0.0844699 0
-0.0824803 0.11862 0
-0.0971488 0.144121 0
0.0115445 0.0844699 0
-0.000908861 0.0709513 0
-0.0971488 0.144121 0
-0.375364 0.326674 0
-0.0824803 0.11862 0
-0.0971488 0.144121 0
-0.000423656 0.00301948 0
-0.0855001 0.405714 0
-0.0971488 0.144121 0
-0.375364 0.326674 0
-0.0855001 0.405714 0
-0.107217 0.427232 0
-0.000423656 0.00301948 0
-0.0855001 0.405714 0
0.00556443 -0.00592719 0
0.201708 0.299621 0
-0.0855001 0.405714 0
-0.107217 0.427232 0
0.201708 0.299621 0
0.483834 0.249262 0
0.00556443 -0.00592719 0
0.201708 0.299621 0
-0.0823683 0.0459029 0
-0.0581883 -0.0183735 0
0.201708 0.299621 0
0.483834 0.249262 0
-0.0581883 -0.0183735 0
0.133522 0.00734036 0
0 0 0
0 0 0
-0.168288 0.010164 0
-0.143234 -0.0327251 0
0 0 0
0 0 0
-0.143234 -0.0327251 0
-0.182868 0.082353 0
-0.168288 0.010164 0
-0.143234 -0.0327251 0
-0.000908861 0.0709513 0
-0.141881 0.0173341 0
-0.143234 -0.0327251 0
-0.182868 0.082353 0
-0.141881 0.0173341 0
-0.0748373 0.00447926 0
-0.000908861 0.0709513 0
-0.141881 0.0173341 0
-0.375364 0.326674 0
-0.470193 0.0475704 0
-0.141881 0.0173341 0
-0.0748373 0.00447926 0
-0.470193 0.0475704 0
-0.315987 -0.276302 0
-0.375364 0.326674 0
-0.470193 0.0475704 0
-0.107217 0.427232 0
0.0131602 -0.0793441 0
-0.470193 0.0475704 0
-0.315987 -0.276302 0
0.0131602 -0.0793441 0
0.0931218 -0.427317 0
-0.107217 0.427232 0
0.0131602 -0.0793441 0
0.483834 0.249262 0
0.546141 -0.117695 0
0.0131602 -0.0793441 0
0.0931218 -0.427317 0
0.546141 -0.117695 0
0.386913 -0.294439 0
0.483834 0.249262 0
0.546141 -0.117695 0
0.133522 0.00734036 0
0.206709 -0.00828597 0
0.546141 -0.117695 0
0.386913 -0.294439 0
0.206709 -0.00828597 0
0.0613272 -0.0479749 0
0 0 0
0 0 0
-0.182868 0.082353 0
-0.19822 -0.0829038 0
0 0 0
0 0 0
-0.19822 -0.0829038 0
-0.0380353 -0.117616 0
-0.182868 0.082353 0
-0.19822 -0.0829038 0
-0.0748373 0.00447926 0
0.00152389 -0.0718286 0
-0.19822 -0.0829038 0
-0.0380353 -0.117616 0
0.00152389 -0.0718286 0
0.052444 -0.383678 0
-0.0748373 0.00447926 0
0.00152389 -0.0718286 0
-0.315987 -0.276302 0
-0.0431363 -0.210148 0
0.00152389 -0.0718286 0
0.052444 -0.383678 0
-0.0431363 -0.210148 0
0.0666041 -0.464155 0
-0.315987 -0.276302 0
-0.0431363 -0.210148 0
0.0931218 -0.427317 0
0.051536 -0.280925 0
-0.0431363 -0.210148 0
0.0666041 -0.464155 0
0.051536 -0.280925 0
-0.193587 -0.241882 0
0.0931218 -0.427317 0
0.051536 -0.280925 0
0.386913 -0.294439 0
0.0973478 7.73325e-05 0
0.051536 -0.280925 0
-0.193587 -0.241882 0
0.0973478 7.73325e-05 0
-0.0647399 -0.0667913 0
0.386913 -0.294439 0
0.0973478 7.73325e-05 0
0.0613272 -0.0479749 0
0.317516 -0.206984 0
0.0973478 7.73325e-05 0
-0.0647399 -0.0667913 0
0.317516 -0.206984 0
0.434693 0.194366 0
0 0 0
0 0 0
-0.0380353 -0.117616 0
-0.0304379 0.154002 0
0 0 0
0 0 0
-0.0304379 0.154002 0
0.124596 -0.376261 0
-0.0380353 -0.117616 0
-0.0304379 0.154002 0
0.052444 -0.383678 0
0.239045 0.209616 0
-0.0304379 0.154002 0
0.124596 -0.376261 0
0.239045 0.209616 0
-0.090691 -0.300101 0
0.052444 -0.383678 0
0.239045 0.209616 0
0.0666041 -0.464155 0
-0.0374497 0.252447 0
0.239045 0.209616 0
-0.090691 -0.300101 0
-0.0374497 0.252447 0
-0.0981262 0.127266 0
0.0666041 -0.464155 0
-0.0374497 0.252447 0
-0.193587 -0.241882 0
-0.0651008 0.0354226 0
-0.0374497 0.252447 0
-0.0981262 0.127266 0
-0.0651008 0.0354226 0
0.0878953 0.213863 0
0 0 0
0 0 0
0.124596 -0.376261 0
0.426895 0.0799232 0
0 0 0
0 0 0
0.426895 0.0799232 0
0.200167 0.200825 0
0.124596 -0.376261 0
0.426895 0.0799232 0
-0.090691 -0.300101 0
-0.412235 0.0451069 0
0.426895 0.0799232 0
0.200167 0.200825 0
-0.412235 0.0451069 0
-0.259371 0.267734 0
-0.090691 -0.300101 0
-0.412235 0.0451069 0
-0.0981262 0.127266 0
0.00317989 -0.0471608 0
-0.412235 0.0451069 0
-0.259371 0.267734 0
0.00317989 -0.0471608 0
0.000716633 0.221127 0
-0.0981262 0.127266 0
0.00317989 -0.0471608 0
0.0878953 0.213863 0
-0.0491293 -0.0965043 0
0.00317989 -0.0471608 0
0.000716633 0.221127 0
-0.0491293 -0.0965043 0
-0.0505975 0.264157 0
0 0 0
0 0 0
0.200167 0.200825 0
0.0938457 -0.063918 0
0 0 0
0 0 0
0.0938457 -0.063918 0
0.0560778 0.114631 0
0.200167 0.200825 0
0.0938457 -0.063918 0
-0.259371 0.267734 0
-0.249638 -0.0149746 0
0.0938457 -0.063918 0
0.0560778 0.114631 0
-0.249638 -0.0149746 0
-0.196564 0.0611395 0
-0.259371 0.267734 0
-0.249638 -0.0149746 0
0.000716633 0.221127 0
-0.0414278 0.048256 0
-0.249638 -0.0149746 0
-0.196564 0.0611395 0
-0.0414278 0.048256 0
-0.152547 0.0463364 0
0.000716633 0.221127 0
-0.0414278 0.048256 0
-0.0505975 0.264157 0
-0.0255038 0.0304605 0
-0.0414278 0.048256 0
-0.152547 0.0463364 0
-0.0255038 0.0304605 0
-0.145125 0.395039 0
0 0 0
0 0 0
0.0560778 0.114631 0
0.053862 -0.127637 0
0 0 0
0 0 0
0.053862 -0.127637 0
0.540447 -0.453908 0
0.0560778 0.114631 0
0.053862 -0.127637 0
-0.196564 0.0611395 0
-0.0733041 -0.212819 0
0.053862 -0.127637 0
0.540447 -0.453908 0
-0.0733041 -0.212819 0
-0.231025 -0.714154 0
-0.196564 0.0611395 0
-0.0733041 -0.212819 0
-0.152547 0.0463364 0
-0.444191 -0.0611143 0
-0.0733041 -0.212819 0
-0.231025 -0.714154 0
-0.444191 -0.0611143 0
-0.626805 -0.496859 0
-0.152547 0.0463364 0
-0.444191 -0.0611143 0
-0.145125 0.395039 0
-0.00599821 -0.233331 0
-0.444191 -0.0611143 0
-0.626805 -0.496859 0
-0.00599821 -0.233331 0
0.323606 -0.394342 0
0 0 0
0.111123 -0.0157116 0
0 0 0
0.0561091 -0.0579609 0
0.111123 -0.0157116 0
0.22302 -0.0521148 0
0.0561091 -0.0579609 0
0.221344 -0.0939776 0
0 0 0
0.0561091 -0.0579609 0
0 0 0
0.00710248 -0.0108839 0
0.0561091 -0.0579609 0
0.221344 -0.0939776 0
0.00710248 -0.0108839 0
0.163299 -0.1025 0
0 0 0
0.00710248 -0.0108839 0
0 0 0
0.0216453 0.0161237 0
0.00710248 -0.0108839 0
0.163299 -0.1025 0
0.0216453 0.0161237 0
0.0411444 -0.00966867 0
0 0 0
0.0216453 0.0161237 0
0 0 0
0.0696605 0.046066 0
0.0216453 0.0161237 0
0.0411444 -0.00966867 0
0.0696605 0.046066 0
-0.179136 -0.0876572 0
0 0 0
0.0696605 0.046066 0
0 0 0
0.11066 -0.00210892 0
0.0696605 0.046066 0
-0.179136 -0.0876572 0
0.11066 -0.00210892 0
-0.371241 -0.0251222 0
0 0 0
0.11066 -0.00210892 0
0 0 0
0.0663851 -0.0607578 0
0.11066 -0.00210892 0
-0.371241 -0.0251222 0
0.0663851 -0.0607578 0
-0.200049 0.108285 0
0 0 0
0.0663851 -0.0607578 0
0 0 0
0.0310886 0.0253578 0
0.0663851 -0.0607578 0
-0.200049 0.108285 0
0.0310886 0.0253578 0
0.0628207 0.121692 0
0 0 0
0.0310886 0.0253578 0
0 0 0
-0.00509383 -0.0610083 0
0.0310886 0.0253578 0
0.0628207 0.121692 0
-0.00509383 -0.0610083 0
0.173124 -0.0702388 0
0 0 0
-0.00509383 -0.0610083 0
0 0 0
-0.0533667 0.0110408 0
-0.00509383 -0.0610083 0
0.173124 -0.0702388 0
-0.0533667 0.0110408 0
0.231719 0.00672986 0
0 0 0
-0.0533667 0.0110408 0
0 0 0
0.816226 1.05994 0
-0.0533667 0.0110408 0
0.231719 0.00672986 0
0.816226 1.05994 0
-0.65696 1.01604 0
0 0 0
0.816226 1.05994 0
0 0 0
1.21314 -0.65548 0
0.816226 1.05994 0
-0.65696 1.01604 0
1.21314 -0.65548 0
-0.925741 -0.544292 0
0 0 0
1.21314 -0.65548 0
0 0 0
0.158287 -0.583517 0
1.21314 -0.65548 0
-0.925741 -0.544292 0
0.158287 -0.583517 0
-0.0833621 -0.885693 0
0 0 0
0.158287 -0.583517 0
0 0 0
0.577125 1.04914 0
0.158287 -0.583517 0
-0.0833621 -0.885693 0
0.577125 1.04914 0
-0.802066 0.951661 0
0 0 0
0.577125 1.04914 0
0 0 0
0.853368 -0.77308 0
0.577125 1.04914 0
-0.802066 0.951661 0
0.853368 -0.77308 0
-1.05758 -0.68826 0
0 0 0
0.853368 -0.77308 0
0 0 0
0.132191 -0.0147009 0
0.853368 -0.77308 0
-1.05758 -0.68826 0
0.132191 -0.0147009 0
-0.181634 0.137922 0
0 0 0
0.132191 -0.0147009 0
0 0 0
0.238775 0.159674 0
0.132191 -0.0147009 0
-0.181634 0.137922 0
0.238775 0.159674 0
0.0704455 0.407424 0
0.22302 -0.0521148 0
0.100291 -0.0808333 0
0.221344 -0.0939776 0
0.0892927 -0.114599 0
0.100291 -0.0808333 0
-0.0195477 -0.0873241 0
0.0892927 -0.114599 0
0.028948 -0.113086 0
0.221344 -0.0939776 0
0.0892927 -0.114599 0
0.163299 -0.1025 0
0.0848216 -0.174101 0
0.0892927 -0.114599 0
0.028948 -0.113086 0
0.0848216 -0.174101 0
0.0309836 -0.202641 0
0.163299 -0.1025 0
0.0848216 -0.174101 0
0.0411444 -0.00966867 0
-0.116427 -0.331845 0
0.0848216 -0.174101 0
0.0309836 -0.202641 0
-0.116427 -0.331845 0
-0.0728449 -0.706455 0
0.0411444 -0.00966867 0
-0.116427 -0.331845 0
-0.179136 -0.0876572 0
-0.513193 -0.483848 0
-0.116427 -0.331845 0
-0.0728449 -0.706455 0
-0.513193 -0.483848 0
-0.022208 -0.549967 0
-0.179136 -0.0876572 0
-0.513193 -0.483848 0
-0.371241 -0.0251222 0
-0.657294 -0.0631992 0
-0.513193 -0.483848 0
-0.022208 -0.549967 0
-0.657294 -0.0631992 0
0.0873333 -0.0511069 0
-0.371241 -0.0251222 0
-0.657294 -0.0631992 0
-0.200049 0.108285 0
-0.57456 0.411611 0
-0.657294 -0.0631992 0
0.0873333 -0.0511069 0
-0.57456 0.411611 0
0.0858495 0.499304 0