# vtk DataFile Version 3.0
#This file was generated by the deal.II library on 2026/3/26 at 11:15:03
ASCII
DATASET UNSTRUCTURED_GRID

POINTS 3648 double
0 0 0
0.214286 0 0
0 0.25 0
0.214286 0.25 0
0 0.25 0
0.214286 0.25 0
0 0.5 0
0.214286 0.5 0
0.214286 0 0
0.428571 0 0
0.214286 0.25 0
0.428571 0.25 0
0.214286 0.25 0
0.428571 0.25 0
0.214286 0.5 0
0.428571 0.5 0
0.428571 0 0
0.642857 0 0
0.428571 0.25 0
0.642857 0.25 0
0.428571 0.25 0
0.642857 0.25 0
0.428571 0.5 0
0.642857 0.5 0
0.428571 0.5 0
0.642857 0.5 0
0.428571 0.75 0
0.642857 0.75 0
0.642857 0 0
0.857143 0 0
0.642857 0.25 0
0.857143 0.25 0
0.642857 0.25 0
0.857143 0.25 0
0.642857 0.5 0
0.857143 0.5 0
0.642857 0.5 0
0.857143 0.5 0
0.642857 0.75 0
0.857143 0.75 0
0.857143 0 0
1.07143 0 0
0.857143 0.25 0
1.07143 0.25 0
0.857143 0.25 0
1.07143 0.25 0
0.857143 0.5 0
1.07143 0.5 0
0.857143 0.5 0
1.07143 0.5 0
0.857143 0.75 0
1.07143 0.75 0
1.07143 0 0
1.28571 0 0
1.07143 0.25 0
1.28571 0.25 0
1.07143 0.25 0
1.28571 0.25 0
1.07143 0.5 0
1.28571 0.5 0
1.07143 0.5 0
1.28571 0.5 0
1.07143 0.75 0
1.28571 0.75 0
1.28571 0 0
1.5 0 0
1.28571 0.25 0
1.5 0.25 0
1.28571 0.25 0
1.5 0.25 0
1.28571 0.5 0
1.5 0.5 0
1.5 0 0
1.71429 0 0
1.5 0.25 0
1.71429 0.25 0
1.5 0.25 0
1.71429 0.25 0
1.5 0.5 0
1.71429 0.5 0
1.71429 0 0
1.92857 0 0
1.71429 0.25 0
1.92857 0.25 0
1.71429 0.25 0
1.92857 0.25 0
1.71429 0.5 0
1.92857 0.5 0
1.92857 0 0
2.14286 0 0
1.92857 0.25 0
2.14286 0.25 0
1.92857 0.25 0
2.14286 0.25 0
1.92857 0.5 0
2.14286 0.5 0
0 3 0
0 2.75 0
0.214286 3 0
0.214286 2.75 0
0.214286 3 0
0.214286 2.75 0
0.428571 3 0
0.428571 2.75 0
0.428571 3 0
0.428571 2.75 0
0.642857 3 0
0.642857 2.75 0
0.642857 3 0
0.642857 2.75 0
0.857143 3 0
0.857143 2.75 0
0.857143 3 0
0.857143 2.75 0
1.07143 3 0
1.07143 2.75 0
1.07143 3 0
1.07143 2.75 0
1.28571 3 0
1.28571 2.75 0
1.28571 3 0
1.28571 2.75 0
1.5 3 0
1.5 2.75 0
1.5 3 0
1.5 2.75 0
1.71429 3 0
1.71429 2.75 0
1.71429 3 0
1.71429 2.75 0
1.92857 3 0
1.92857 2.75 0
1.92857 3 0
1.92857 2.75 0
2.14286 3 0
2.14286 2.75 0
0 2.75 0
0 2.5 0
0.214286 2.75 0
0.214286 2.5 0
0.214286 2.75 0
0.214286 2.5 0
0.428571 2.75 0
0.428571 2.5 0
0.428571 2.75 0
0.428571 2.5 0
0.642857 2.75 0
0.642857 2.5 0
0.642857 2.75 0
0.642857 2.5 0
0.857143 2.75 0
0.857143 2.5 0
0.857143 2.75 0
0.857143 2.5 0
1.07143 2.75 0
1.07143 2.5 0
1.07143 2.75 0
1.07143 2.5 0
1.28571 2.75 0
1.28571 2.5 0
1.28571 2.75 0
1.28571 2.5 0
1.5 2.75 0
1.5 2.5 0
1.5 2.75 0
1.5 2.5 0
1.71429 2.75 0
1.71429 2.5 0
1.71429 2.75 0
1.71429 2.5 0
1.92857 2.75 0
1.92857 2.5 0
1.92857 2.75 0
1.92857 2.5 0
2.14286 2.75 0
2.14286 2.5 0
0.428571 2.5 0
0.428571 2.25 0
0.642857 2.5 0
0.642857 2.25 0
0.642857 2.5 0
0.642857 2.25 0
0.857143 2.5 0
0.857143 2.25 0
0.857143 2.5 0
0.857143 2.25 0
1.07143 2.5 0
1.07143 2.25 0
1.07143 2.5 0
1.07143 2.25 0
1.28571 2.5 0
1.28571 2.25 0
0.214286 0.75 0
0.321429 0.75 0
0.214286 0.875 0
0.321429 0.875 0
0.321429 0.75 0
0.428571 0.75 0
0.321429 0.875 0
0.428571 0.875 0
0.214286 0.875 0
0.321429 0.875 0
0.214286 1 0
0.321429 1 0
0.321429 0.875 0
0.428571 0.875 0
0.321429 1 0
0.428571 1 0
0.428571 0.75 0
0.535714 0.75 0
0.428571 0.875 0
0.535714 0.875 0
0.535714 0.75 0
0.642857 0.75 0
0.535714 0.875 0
0.642857 0.875 0
0.428571 0.875 0
0.535714 0.875 0
0.428571 1 0
0.535714 1 0
0.535714 0.875 0
0.642857 0.875 0
0.535714 1 0
0.642857 1 0
0.642857 0.75 0
0.75 0.75 0
0.642857 0.875 0
0.75 0.875 0
0.75 0.75 0
0.857143 0.75 0
0.75 0.875 0
0.857143 0.875 0
0.642857 0.875 0
0.75 0.875 0
0.642857 1 0
0.75 1 0
0.75 0.875 0
0.857143 0.875 0
0.75 1 0
0.857143 1 0
0.857143 0.75 0
0.964286 0.75 0
0.857143 0.875 0
0.964286 0.875 0
0.964286 0.75 0
1.07143 0.75 0
0.964286 0.875 0
1.07143 0.875 0
0.857143 0.875 0
0.964286 0.875 0
0.857143 1 0
0.964286 1 0
0.964286 0.875 0
1.07143 0.875 0
0.964286 1 0
1.07143 1 0
1.07143 0.75 0
1.17857 0.75 0
1.07143 0.875 0
1.17857 0.875 0
1.17857 0.75 0
1.28571 0.75 0
1.17857 0.875 0
1.28571 0.875 0
1.07143 0.875 0
1.17857 0.875 0
1.07143 1 0
1.17857 1 0
1.17857 0.875 0
1.28571 0.875 0
1.17857 1 0
1.28571 1 0
0.214286 2 0
0.214286 1.875 0
0.321429 2 0
0.321429 1.875 0
0.214286 1.875 0
0.214286 1.75 0
0.321429 1.875 0
0.321429 1.75 0
0.321429 2 0
0.321429 1.875 0
0.428571 2 0
0.428571 1.875 0
0.321429 1.875 0
0.321429 1.75 0
0.428571 1.875 0
0.428571 1.75 0
0.428571 2 0
0.428571 1.875 0
0.535714 2 0
0.535714 1.875 0
0.428571 1.875 0
0.428571 1.75 0
0.535714 1.875 0
0.535714 1.75 0
0.535714 2 0
0.535714 1.875 0
0.642857 2 0
0.642857 1.875 0
0.535714 1.875 0
0.535714 1.75 0
0.642857 1.875 0
0.642857 1.75 0
0.642857 2 0
0.642857 1.875 0
0.75 2 0
0.75 1.875 0
0.642857 1.875 0
0.642857 1.75 0
0.75 1.875 0
0.75 1.75 0
0.75 2 0
0.75 1.875 0
0.857143 2 0
0.857143 1.875 0
0.75 1.875 0
0.75 1.75 0
0.857143 1.875 0
0.857143 1.75 0
0.857143 2 0
0.857143 1.875 0
0.964286 2 0
0.964286 1.875 0
0.857143 1.875 0
0.857143 1.75 0
0.964286 1.875 0
0.964286 1.75 0
0.964286 2 0
0.964286 1.875 0
1.07143 2 0
1.07143 1.875 0
0.964286 1.875 0
0.964286 1.75 0
1.07143 1.875 0
1.07143 1.75 0
1.07143 2 0
1.07143 1.875 0
1.17857 2 0
1.17857 1.875 0
1.07143 1.875 0
1.07143 1.75 0
1.17857 1.875 0
1.17857 1.75 0
1.17857 2 0
1.17857 1.875 0
1.28571 2 0
1.28571 1.875 0
1.17857 1.875 0
1.17857 1.75 0
1.28571 1.875 0
1.28571 1.75 0
0.214286 1.25 0
0.214286 1.125 0
0.321429 1.25 0
0.321429 1.125 0
0.214286 1.125 0
0.214286 1 0
0.321429 1.125 0
0.321429 1 0
0.321429 1.25 0
0.321429 1.125 0
0.428571 1.25 0
0.428571 1.125 0
0.321429 1.125 0
0.321429 1 0
0.428571 1.125 0
0.428571 1 0
0.428571 1.25 0
0.428571 1.125 0
0.535714 1.25 0
0.535714 1.125 0
0.428571 1.125 0
0.428571 1 0
0.535714 1.125 0
0.535714 1 0
0.535714 1.25 0
0.535714 1.125 0
0.642857 1.25 0
0.642857 1.125 0
0.535714 1.125 0
0.535714 1 0
0.642857 1.125 0
0.642857 1 0
0.642857 1.25 0
0.642857 1.125 0
0.75 1.25 0
0.75 1.125 0
0.642857 1.125 0
0.642857 1 0
0.75 1.125 0
0.75 1 0
0.75 1.25 0
0.75 1.125 0
0.857143 1.25 0
0.857143 1.125 0
0.75 1.125 0
0.75 1 0
0.857143 1.125 0
0.857143 1 0
0.857143 1.25 0
0.857143 1.125 0
0.964286 1.25 0
0.964286 1.125 0
0.857143 1.125 0
0.857143 1 0
0.964286 1.125 0
0.964286 1 0
0.964286 1.25 0
0.964286 1.125 0
1.07143 1.25 0
1.07143 1.125 0
0.964286 1.125 0
0.964286 1 0
1.07143 1.125 0
1.07143 1 0
1.07143 1.25 0
1.07143 1.125 0
1.17857 1.25 0
1.17857 1.125 0
1.07143 1.125 0
1.07143 1 0
1.17857 1.125 0
1.17857 1 0
1.17857 1.25 0
1.17857 1.125 0
1.28571 1.25 0
1.28571 1.125 0
1.17857 1.125 0
1.17857 1 0
1.28571 1.125 0
1.28571 1 0
0.214286 2.25 0
0.214286 2.125 0
0.321429 2.25 0
0.321429 2.125 0
0.214286 2.125 0
0.214286 2 0
0.321429 2.125 0
0.321429 2 0
0.321429 2.25 0
0.321429 2.125 0
0.428571 2.25 0
0.428571 2.125 0
0.321429 2.125 0
0.321429 2 0
0.428571 2.125 0
0.428571 2 0
0.428571 2.25 0
0.428571 2.125 0
0.535714 2.25 0
0.535714 2.125 0
0.428571 2.125 0
0.428571 2 0
0.535714 2.125 0
0.535714 2 0
0.535714 2.25 0
0.535714 2.125 0
0.642857 2.25 0
0.642857 2.125 0
0.535714 2.125 0
0.535714 2 0
0.642857 2.125 0
0.642857 2 0
0.642857 2.25 0
0.642857 2.125 0
0.75 2.25 0
0.75 2.125 0
0.642857 2.125 0
0.642857 2 0
0.75 2.125 0
0.75 2 0
0.75 2.25 0
0.75 2.125 0
0.857143 2.25 0
0.857143 2.125 0
0.75 2.125 0
0.75 2 0
0.857143 2.125 0
0.857143 2 0
0.857143 2.25 0
0.857143 2.125 0
0.964286 2.25 0
0.964286 2.125 0
0.857143 2.125 0
0.857143 2 0
0.964286 2.125 0
0.964286 2 0
0.964286 2.25 0
0.964286 2.125 0
1.07143 2.25 0
1.07143 2.125 0
0.964286 2.125 0
0.964286 2 0
1.07143 2.125 0
1.07143 2 0
1.07143 2.25 0
1.07143 2.125 0
1.17857 2.25 0
1.17857 2.125 0
1.07143 2.125 0
1.07143 2 0
1.17857 2.125 0
1.17857 2 0
1.17857 2.25 0
1.17857 2.125 0
1.28571 2.25 0
1.28571 2.125 0
1.17857 2.125 0
1.17857 2 0
1.28571 2.125 0
1.28571 2 0
0 0.5 0
0.107143 0.5 0
0 0.625 0
0.107143 0.625 0
0.107143 0.5 0
0.214286 0.5 0
0.107143 0.625 0
0.214286 0.625 0
0 0.625 0
0.107143 0.625 0
0 0.75 0
0.107143 0.75 0
0.107143 0.625 0
0.214286 0.625 0
0.107143 0.75 0
0.214286 0.75 0
0.214286 0.5 0
0.321429 0.5 0
0.214286 0.625 0
0.321429 0.625 0
0.321429 0.5 0
0.428571 0.5 0
0.321429 0.625 0
0.428571 0.625 0
0.214286 0.625 0
0.321429 0.625 0
0.214286 0.75 0
0.321429 0.75 0
0.321429 0.625 0
0.428571 0.625 0
0.321429 0.75 0
0.428571 0.75 0
1.28571 0.5 0
1.39286 0.5 0
1.28571 0.625 0
1.39286 0.625 0
1.39286 0.5 0
1.5 0.5 0
1.39286 0.625 0
1.5 0.625 0
1.28571 0.625 0
1.39286 0.625 0
1.28571 0.75 0
1.39286 0.75 0
1.39286 0.625 0
1.5 0.625 0
1.39286 0.75 0
1.5 0.75 0
1.28571 0.75 0
1.39286 0.75 0
1.28571 0.875 0
1.39286 0.875 0
1.39286 0.75 0
1.5 0.75 0
1.39286 0.875 0
1.5 0.875 0
1.28571 0.875 0
1.39286 0.875 0
1.28571 1 0
1.39286 1 0
1.39286 0.875 0
1.5 0.875 0
1.39286 1 0
1.5 1 0
1.5 0.5 0
1.60714 0.5 0
1.5 0.625 0
1.60714 0.625 0
1.60714 0.5 0
1.71429 0.5 0
1.60714 0.625 0
1.71429 0.625 0
1.5 0.625 0
1.60714 0.625 0
1.5 0.75 0
1.60714 0.75 0
1.60714 0.625 0
1.71429 0.625 0
1.60714 0.75 0
1.71429 0.75 0
1.71429 0.5 0
1.82143 0.5 0
1.71429 0.625 0
1.82143 0.625 0
1.82143 0.5 0
1.92857 0.5 0
1.82143 0.625 0
1.92857 0.625 0
1.71429 0.625 0
1.82143 0.625 0
1.71429 0.75 0
1.82143 0.75 0
1.82143 0.625 0
1.92857 0.625 0
1.82143 0.75 0
1.92857 0.75 0
1.92857 0.5 0
2.03571 0.5 0
1.92857 0.625 0
2.03571 0.625 0
2.03571 0.5 0
2.14286 0.5 0
2.03571 0.625 0
2.14286 0.625 0
1.92857 0.625 0
2.03571 0.625 0
1.92857 0.75 0
2.03571 0.75 0
2.03571 0.625 0
2.14286 0.625 0
2.03571 0.75 0
2.14286 0.75 0
2.14286 0 0
2.25 0 0
2.14286 0.125 0
2.25 0.125 0
2.25 0 0
2.35714 0 0
2.25 0.125 0
2.35714 0.125 0
2.14286 0.125 0
2.25 0.125 0
2.14286 0.25 0
2.25 0.25 0
2.25 0.125 0
2.35714 0.125 0
2.25 0.25 0
2.35714 0.25 0
2.14286 0.25 0
2.25 0.25 0
2.14286 0.375 0
2.25 0.375 0
2.25 0.25 0
2.35714 0.25 0
2.25 0.375 0
2.35714 0.375 0
2.14286 0.375 0
2.25 0.375 0
2.14286 0.5 0
2.25 0.5 0
2.25 0.375 0
2.35714 0.375 0
2.25 0.5 0
2.35714 0.5 0
2.14286 0.5 0
2.25 0.5 0
2.14286 0.625 0
2.25 0.625 0
2.25 0.5 0
2.35714 0.5 0
2.25 0.625 0
2.35714 0.625 0
2.14286 0.625 0
2.25 0.625 0
2.14286 0.75 0
2.25 0.75 0
2.25 0.625 0
2.35714 0.625 0
2.25 0.75 0
2.35714 0.75 0
2.35714 0 0
2.46429 0 0
[...]
POINT_DATA 3648
VECTORS velocity double
0 0 0
0 0 0
0 0 0
-0.0112631 0.0126851 0
0 0 0
-0.0112631 0.0126851 0
0 0 0
-0.00154174 0.0278187 0
0 0 0
0 0 0
-0.0112631 0.0126851 0
-0.0338374 0.0134247 0
-0.0112631 0.0126851 0
-0.0338374 0.0134247 0
-0.00154174 0.0278187 0
-0.00192943 0.0254909 0
0 0 0
0 0 0
-0.0338374 0.0134247 0
-0.0524281 0.008621 0
-0.0338374 0.0134247 0
-0.0524281 0.008621 0
-0.00192943 0.0254909 0
-0.00285002 0.0193951 0
-0.00192943 0.0254909 0
-0.00285002 0.0193951 0
0.0205603 0.0162686 0
0.036042 0.0121391 0
0 0 0
0 0 0
-0.0524281 0.008621 0
-0.0594584 -4.66837e-05 0
-0.0524281 0.008621 0
-0.0594584 -4.66837e-05 0
-0.00285002 0.0193951 0
0.00288321 -0.010286 0
-0.00285002 0.0193951 0
0.00288321 -0.010286 0
0.036042 0.0121391 0
0.0357674 -0.00927906 0
0 0 0
0 0 0
-0.0594584 -4.66837e-05 0
-0.0494669 -0.0112483 0
-0.0594584 -4.66837e-05 0
-0.0494669 -0.0112483 0
0.00288321 -0.010286 0
0.00653363 -0.0168513 0
0.00288321 -0.010286 0
0.00653363 -0.0168513 0
0.0357674 -0.00927906 0
0.019419 -0.00216351 0
0 0 0
0 0 0
-0.0494669 -0.0112483 0
-0.00954438 -0.0374671 0
-0.0494669 -0.0112483 0
-0.00954438 -0.0374671 0
0.00653363 -0.0168513 0
-0.0192911 -0.0483953 0
0.00653363 -0.0168513 0
-0.0192911 -0.0483953 0
0.019419 -0.00216351 0
0.00916041 -0.0214634 0
0 0 0
0 0 0
-0.00954438 -0.0374671 0
0.0706093 -0.0573111 0
-0.00954438 -0.0374671 0
0.0706093 -0.0573111 0
-0.0192911 -0.0483953 0
-0.067116 -0.0823629 0
0 0 0
0 0 0
0.0706093 -0.0573111 0
0.0808621 0.0456636 0
0.0706093 -0.0573111 0
0.0808621 0.0456636 0
-0.067116 -0.0823629 0
-0.0665281 0.0561767 0
0 0 0
0 0 0
0.0808621 0.0456636 0
0.0276471 0.016089 0
0.0808621 0.0456636 0
0.0276471 0.016089 0
-0.0665281 0.0561767 0
-0.0426729 0.0403723 0
0 0 0
0 0 0
0.0276471 0.016089 0
-0.0107587 0.0275356 0
0.0276471 0.016089 0
-0.0107587 0.0275356 0
-0.0426729 0.0403723 0
-0.0116154 0.0114466 0
0 0 0
0 0 0
0 0 0
-0.0115356 -0.0129935 0
0 0 0
-0.0115356 -0.0129935 0
0 0 0
-0.0348525 -0.0139776 0
0 0 0
-0.0348525 -0.0139776 0
0 0 0
-0.0539172 -0.00868235 0
0 0 0
-0.0539172 -0.00868235 0
0 0 0
-0.060634 0.000426545 0
0 0 0
-0.060634 0.000426545 0
0 0 0
-0.0499283 0.0116671 0
0 0 0
-0.0499283 0.0116671 0
0 0 0
-0.00832714 0.039119 0
0 0 0
-0.00832714 0.039119 0
0 0 0
0.07129 0.0548347 0
0 0 0
0.07129 0.0548347 0
0 0 0
0.0799644 -0.0449251 0
0 0 0
0.0799644 -0.0449251 0
0 0 0
0.0270259 -0.0166084 0
0 0 0
0.0270259 -0.0166084 0
0 0 0
-0.0115496 -0.0271362 0
0 0 0
0 0 0
-0.0115356 -0.0129935 0
-0.0017834 -0.0287165 0
-0.0115356 -0.0129935 0
-0.0017834 -0.0287165 0
-0.0348525 -0.0139776 0
-0.002211 -0.0263377 0
-0.0348525 -0.0139776 0
-0.002211 -0.0263377 0
-0.0539172 -0.00868235 0
-0.00323092 -0.0198251 0
-0.0539172 -0.00868235 0
-0.00323092 -0.0198251 0
-0.060634 0.000426545 0
0.00264614 0.0116768 0
-0.060634 0.000426545 0
0.00264614 0.0116768 0
-0.0499283 0.0116671 0
0.00674738 0.0175474 0
-0.0499283 0.0116671 0
0.00674738 0.0175474 0
-0.00832714 0.039119 0
-0.0208766 0.049673 0
-0.00832714 0.039119 0
-0.0208766 0.049673 0
0.07129 0.0548347 0
-0.0666164 0.0819706 0
0.07129 0.0548347 0
-0.0666164 0.0819706 0
0.0799644 -0.0449251 0
-0.0650384 -0.0576267 0
0.0799644 -0.0449251 0
-0.0650384 -0.0576267 0
0.0270259 -0.0166084 0
-0.0422619 -0.0399501 0
0.0270259 -0.0166084 0
-0.0422619 -0.0399501 0
-0.0115496 -0.0271362 0
-0.0112509 -0.0121148 0
-0.002211 -0.0263377 0
0.0211152 -0.0168396 0
-0.00323092 -0.0198251 0
0.0371597 -0.0122812 0
-0.00323092 -0.0198251 0
0.0371597 -0.0122812 0
0.00264614 0.0116768 0
0.0366466 0.0103069 0
0.00264614 0.0116768 0
0.0366466 0.0103069 0
0.00674738 0.0175474 0
0.0189902 0.0022073 0
0.00674738 0.0175474 0
0.0189902 0.0022073 0
-0.0208766 0.049673 0
0.00946179 0.0222753 0
0.00625008 0.0206246 0
0.014894 0.0223567 0
0.00306836 0.0116668 0
0.00991554 0.013086 0
0.014894 0.0223567 0
0.0205603 0.0162686 0
0.00991554 0.013086 0
0.0186714 0.00889024 0
0.00306836 0.0116668 0
0.00991554 0.013086 0
0.0527522 -0.00353978 0
0.0752193 -0.0052006 0
0.00991554 0.013086 0
0.0186714 0.00889024 0
0.0752193 -0.0052006 0
0.0944139 -0.00518459 0
0.0205603 0.0162686 0
0.0278447 0.0137693 0
0.0186714 0.00889024 0
0.0244043 0.00621247 0
0.0278447 0.0137693 0
0.036042 0.0121391 0
0.0244043 0.00621247 0
0.0296186 0.00439565 0
0.0186714 0.00889024 0
0.0244043 0.00621247 0
0.0944139 -0.00518459 0
0.111 -0.00597398 0
0.0244043 0.00621247 0
0.0296186 0.00439565 0
0.111 -0.00597398 0
0.125139 -0.00657635 0
0.036042 0.0121391 0
0.0402582 0.00221056 0
0.0296186 0.00439565 0
0.0334891 0.00103605 0
0.0402582 0.00221056 0
0.0357674 -0.00927906 0
0.0334891 0.00103605 0
0.0337241 -0.00249018 0
0.0296186 0.00439565 0
0.0334891 0.00103605 0
0.125139 -0.00657635 0
0.137471 -0.00765478 0
0.0334891 0.00103605 0
0.0337241 -0.00249018 0
0.137471 -0.00765478 0
0.14852 -0.00781452 0
0.0357674 -0.00927906 0
0.0273061 -0.00667124 0
0.0337241 -0.00249018 0
0.0331145 -0.00247377 0
0.0273061 -0.00667124 0
0.019419 -0.00216351 0
0.0331145 -0.00247377 0
0.036634 -0.00100385 0
0.0337241 -0.00249018 0
0.0331145 -0.00247377 0
0.14852 -0.00781452 0
0.15834 -0.00888386 0
0.0331145 -0.00247377 0
0.036634 -0.00100385 0
0.15834 -0.00888386 0
0.166651 -0.00941034 0
0.019419 -0.00216351 0
0.0129865 -0.010329 0
0.036634 -0.00100385 0
0.0394799 -0.00699019 0
0.0129865 -0.010329 0
0.00916041 -0.0214634 0
0.0394799 -0.00699019 0
0.0330983 -0.0124166 0
0.036634 -0.00100385 0
0.0394799 -0.00699019 0
0.166651 -0.00941034 0
0.173525 -0.0107193 0
0.0394799 -0.00699019 0
0.0330983 -0.0124166 0
0.173525 -0.0107193 0
0.179404 -0.008413 0
0.0521537 0.00336393 0
0.242141 0.0132526 0
0.074273 0.00493159 0
0.235118 0.0122474 0
0.242141 0.0132526 0
0.159079 0.0065846 0
0.235118 0.0122474 0
0.154957 0.0062145 0
0.074273 0.00493159 0
0.235118 0.0122474 0
0.0932112 0.00484171 0
0.228557 0.0111587 0
0.235118 0.0122474 0
0.154957 0.0062145 0
0.228557 0.0111587 0
0.151293 0.00565578 0
0.0932112 0.00484171 0
0.228557 0.0111587 0
0.109604 0.00563887 0
0.22235 0.0101672 0
0.228557 0.0111587 0
0.151293 0.00565578 0
0.22235 0.0101672 0
0.14808 0.00528143 0
0.109604 0.00563887 0
0.22235 0.0101672 0
0.123609 0.0062648 0
0.216389 0.00992625 0
0.22235 0.0101672 0
0.14808 0.00528143 0
0.216389 0.00992625 0
0.145172 0.0051393 0
0.123609 0.0062648 0
0.216389 0.00992625 0
0.135844 0.00743437 0
0.210433 0.00954658 0
0.216389 0.00992625 0
0.145172 0.0051393 0
0.210433 0.00954658 0
0.142517 0.0049754 0
0.135844 0.00743437 0
0.210433 0.00954658 0
0.146841 0.00757549 0
0.204284 0.00953861 0
0.210433 0.00954658 0
0.142517 0.0049754 0
0.204284 0.00953861 0
0.140076 0.00483081 0
0.146841 0.00757549 0
0.204284 0.00953861 0
0.156666 0.0086909 0
0.197899 0.00920208 0
0.204284 0.00953861 0
0.140076 0.00483081 0
0.197899 0.00920208 0
0.137823 0.0046497 0
0.156666 0.0086909 0
0.197899 0.00920208 0
0.164998 0.0092487 0
0.191432 0.00963658 0
0.197899 0.00920208 0
0.137823 0.0046497 0
0.191432 0.00963658 0
0.135673 0.00484601 0
0.164998 0.0092487 0
0.191432 0.00963658 0
0.171899 0.0106447 0
0.184801 0.0090348 0
0.191432 0.00963658 0
0.135673 0.00484601 0
0.184801 0.0090348 0
0.133707 0.00421257 0
0.171899 0.0106447 0
0.184801 0.0090348 0
0.177886 0.00819549 0
0.178109 0.00782246 0
0.184801 0.0090348 0
0.133707 0.00421257 0
0.178109 0.00782246 0
0.132129 0.0034447 0
0.156926 -0.00670949 0
0.240893 -0.0135621 0
0.152638 -0.00633828 0
0.2337 -0.0125761 0
0.240893 -0.0135621 0
0.0527522 -0.00353978 0
0.2337 -0.0125761 0
0.0752193 -0.0052006 0
0.152638 -0.00633828 0
0.2337 -0.0125761 0
0.148832 -0.00577873 0
0.226933 -0.0114755 0
0.2337 -0.0125761 0
0.0752193 -0.0052006 0
0.226933 -0.0114755 0
0.0944139 -0.00518459 0
0.148832 -0.00577873 0
0.226933 -0.0114755 0
0.145507 -0.00537649 0
0.220505 -0.0104554 0
0.226933 -0.0114755 0
0.0944139 -0.00518459 0
0.220505 -0.0104554 0
0.111 -0.00597398 0
0.145507 -0.00537649 0
0.220505 -0.0104554 0
0.142519 -0.00521163 0
0.21433 -0.0101408 0
0.220505 -0.0104554 0
0.111 -0.00597398 0
0.21433 -0.0101408 0
0.125139 -0.00657635 0
0.142519 -0.00521163 0
0.21433 -0.0101408 0
0.139818 -0.00501764 0
0.208181 -0.00971325 0
0.21433 -0.0101408 0
0.125139 -0.00657635 0
0.208181 -0.00971325 0
0.137471 -0.00765478 0
0.139818 -0.00501764 0
0.208181 -0.00971325 0
0.137361 -0.00487019 0
0.201862 -0.00965855 0
0.208181 -0.00971325 0
0.137471 -0.00765478 0
0.201862 -0.00965855 0
0.14852 -0.00781452 0
0.137361 -0.00487019 0
0.201862 -0.00965855 0
0.135112 -0.00464551 0
0.195329 -0.00928826 0
0.201862 -0.00965855 0
0.14852 -0.00781452 0
0.195329 -0.00928826 0
0.15834 -0.00888386 0
0.135112 -0.00464551 0
0.195329 -0.00928826 0
0.132985 -0.00482456 0
0.188721 -0.00966659 0
0.195329 -0.00928826 0
0.15834 -0.00888386 0
0.188721 -0.00966659 0
0.166651 -0.00941034 0
0.132985 -0.00482456 0
0.188721 -0.00966659 0
0.131053 -0.00418816 0
0.181964 -0.00905555 0
0.188721 -0.00966659 0
0.166651 -0.00941034 0
0.181964 -0.00905555 0
0.173525 -0.0107193 0
0.131053 -0.00418816 0
0.181964 -0.00905555 0
0.129503 -0.00345738 0
0.175188 -0.00786141 0
0.181964 -0.00905555 0
0.173525 -0.0107193 0
0.175188 -0.00786141 0
0.179404 -0.008413 0
0.00666597 -0.0214565 0
0.00364946 -0.0120215 0
0.0154151 -0.0229381 0
0.0110447 -0.0133951 0
0.00364946 -0.0120215 0
0.0521537 0.00336393 0
0.0110447 -0.0133951 0
0.074273 0.00493159 0
0.0154151 -0.0229381 0
0.0110447 -0.0133951 0
0.0211152 -0.0168396 0
0.0201555 -0.0092869 0
0.0110447 -0.0133951 0
0.074273 0.00493159 0
0.0201555 -0.0092869 0
0.0932112 0.00484171 0
0.0211152 -0.0168396 0
0.0201555 -0.0092869 0
0.0285415 -0.0140924 0
0.026019 -0.00639368 0
0.0201555 -0.0092869 0
0.0932112 0.00484171 0
0.026019 -0.00639368 0
0.109604 0.00563887 0
0.0285415 -0.0140924 0
0.026019 -0.00639368 0
0.0371597 -0.0122812 0
0.0310217 -0.00443135 0
0.026019 -0.00639368 0
0.109604 0.00563887 0
0.0310217 -0.00443135 0
0.123609 0.0062648 0
0.0371597 -0.0122812 0
0.0310217 -0.00443135 0
0.0415992 -0.00185736 0
0.0345314 -0.00095433 0
0.0310217 -0.00443135 0
0.123609 0.0062648 0
0.0345314 -0.00095433 0
0.135844 0.00743437 0
0.0415992 -0.00185736 0
0.0345314 -0.00095433 0
0.0366466 0.0103069 0
0.0342644 0.00264391 0
0.0345314 -0.00095433 0
0.135844 0.00743437 0
0.0342644 0.00264391 0
0.146841 0.00757549 0
0.0366466 0.0103069 0
0.0342644 0.00264391 0
0.027457 0.00733255 0
0.0331181 0.00253008 0
0.0342644 0.00264391 0
0.146841 0.00757549 0
0.0331181 0.00253008 0
0.156666 0.0086909 0
0.027457 0.00733255 0
0.0331181 0.00253008 0
0.0189902 0.0022073 0
0.0364675 0.000768205 0
0.0331181 0.00253008 0
0.156666 0.0086909 0
0.0364675 0.000768205 0
0.164998 0.0092487 0
0.0189902 0.0022073 0
0.0364675 0.000768205 0
0.012481 0.0106257 0
0.0391139 0.00720086 0
0.0364675 0.000768205 0
0.164998 0.0092487 0
0.0391139 0.00720086 0
0.171899 0.0106447 0
0.012481 0.0106257 0
0.0391139 0.00720086 0
0.00946179 0.0222753 0
0.0317155 0.0129958 0
0.0391139 0.00720086 0
0.171899 0.0106447 0
0.0317155 0.0129958 0
0.177886 0.00819549 0
0 0 0
-0.000344075 0.0142457 0
0 0 0
0.00109173 0.0136177 0
-0.000344075 0.0142457 0
-0.00154174 0.0278187 0
0.00109173 0.0136177 0
0.00253808 0.0283346 0
0 0 0
0.00109173 0.0136177 0
0 0 0
2.80197e-06 0.012612 0
0.00109173 0.0136177 0
0.00253808 0.0283346 0
2.80197e-06 0.012612 0
0.00625008 0.0206246 0
-0.00154174 0.0278187 0
-0.00245032 0.0265947 0
0.00253808 0.0283346 0
0.00381616 0.0258986 0
-0.00245032 0.0265947 0
-0.00192943 0.0254909 0
0.00381616 0.0258986 0
0.00662728 0.0225127 0
0.00253808 0.0283346 0
0.00381616 0.0258986 0
0.00625008 0.0206246 0
0.014894 0.0223567 0
0.00381616 0.0258986 0
0.00662728 0.0225127 0
0.014894 0.0223567 0
0.0205603 0.0162686 0
-0.0192911 -0.0483953 0
-0.0414275 -0.0668618 0
-0.00856632 -0.0296042 0
-0.0288819 -0.036236 0
-0.0414275 -0.0668618 0
-0.067116 -0.0823629 0
-0.0288819 -0.036236 0
-0.0590944 -0.0481692 0
-0.00856632 -0.0296042 0
-0.0288819 -0.036236 0
0.00916041 -0.0214634 0
-0.00249328 -0.00665976 0
-0.0288819 -0.036236 0
-0.0590944 -0.0481692 0
-0.00249328 -0.00665976 0
-0.0357354 -0.00410172 0
0.00916041 -0.0214634 0
-0.00249328 -0.00665976 0
0.0330983 -0.0124166 0
0.0310368 -1.63743e-05 0
-0.00249328 -0.00665976 0
-0.0357354 -0.00410172 0
0.0310368 -1.63743e-05 0
0.0474936 0.00865163 0
0.0330983 -0.0124166 0
0.0310368 -1.63743e-05 0
0.179404 -0.008413 0
0.183953 -0.00741947 0
0.0310368 -1.63743e-05 0
0.0474936 0.00865163 0
0.183953 -0.00741947 0
0.185753 -0.00512731 0
-0.067116 -0.0823629 0
-0.0811256 -0.0115249 0
-0.0590944 -0.0481692 0
-0.073027 -0.0120976 0
-0.0811256 -0.0115249 0
-0.0665281 0.0561767 0
-0.073027 -0.0120976 0
-0.0606913 0.0248607 0
-0.0590944 -0.0481692 0
-0.073027 -0.0120976 0
-0.0357354 -0.00410172 0
-0.0426105 -0.0310612 0
-0.073027 -0.0120976 0
-0.0606913 0.0248607 0
-0.0426105 -0.0310612 0
-0.0377257 0.0230956 0
-0.0665281 0.0561767 0
-0.0456273 0.0479522 0
-0.0606913 0.0248607 0
-0.0472497 0.0391317 0
-0.0456273 0.0479522 0
-0.0426729 0.0403723 0
-0.0472497 0.0391317 0
-0.0327875 0.0287601 0
-0.0606913 0.0248607 0
-0.0472497 0.0391317 0
-0.0377257 0.0230956 0
-0.0405283 0.0288679 0
-0.0472497 0.0391317 0
-0.0327875 0.0287601 0
-0.0405283 0.0288679 0
-0.0212472 -0.000299551 0
-0.0426729 0.0403723 0
-0.0381547 0.0267061 0
-0.0327875 0.0287601 0
-0.001471 -0.00353933 0
-0.0381547 0.0267061 0
-0.0116154 0.0114466 0
-0.001471 -0.00353933 0
0.0129189 -0.00656368 0
-0.0327875 0.0287601 0
-0.001471 -0.00353933 0
-0.0212472 -0.000299551 0
-0.0224915 -0.00925246 0
-0.001471 -0.00353933 0
0.0129189 -0.00656368 0
-0.0224915 -0.00925246 0
-0.0300442 -0.00855904 0
0 0 0
0 0 0
-0.0032228 0.00683557 0
-0.0382179 0.0338663 0
0 0 0
0 0 0
-0.0382179 0.0338663 0
-0.0376401 -0.0333768 0
-0.0032228 0.00683557 0
-0.0382179 0.0338663 0
-0.0107587 0.0275356 0
0.0118137 0.0276136 0
-0.0382179 0.0338663 0
-0.0376401 -0.0333768 0
0.0118137 0.0276136 0
0.0133156 -0.0287949 0
-0.0107587 0.0275356 0
0.0118137 0.0276136 0
-0.0116822 0.0374201 0
0.00692765 -0.0292009 0
0.0118137 0.0276136 0
0.0133156 -0.0287949 0
0.00692765 -0.0292009 0
-0.00375607 0.0379858 0
-0.0116822 0.0374201 0
0.00692765 -0.0292009 0
-0.0116154 0.0114466 0
-0.00581327 -0.0298615 0
0.00692765 -0.0292009 0
-0.00375607 0.0379858 0
-0.00581327 -0.0298615 0
-0.0201415 0.0669445 0
-0.0116154 0.0114466 0
-0.00581327 -0.0298615 0
0.0129189 -0.00656368 0
-0.0108153 0.00865157 0
-0.00581327 -0.0298615 0
-0.0201415 0.0669445 0
-0.0108153 0.00865157 0
-0.0201978 0.0555871 0
0.0129189 -0.00656368 0
-0.0108153 0.00865157 0
-0.0300442 -0.00855904 0
-0.011228 0.0162653 0
-0.0108153 0.00865157 0
-0.0201978 0.0555871 0
-0.011228 0.0162653 0
0.0103509 0.0339123 0
0 0 0
0 0 0
-0.0376401 -0.0333768 0
-0.0190112 0.0105382 0
0 0 0
0 0 0
-0.0190112 0.0105382 0
-0.023882 -0.00395072 0
-0.0376401 -0.0333768 0
-0.0190112 0.0105382 0
0.0133156 -0.0287949 0
-0.030025 0.0336161 0
-0.0190112 0.0105382 0
-0.023882 -0.00395072 0
-0.030025 0.0336161 0
-0.0443603 -0.00293958 0
0.0133156 -0.0287949 0
-0.030025 0.0336161 0
-0.00375607 0.0379858 0
-0.0280558 0.0456402 0
-0.030025 0.0336161 0
-0.0443603 -0.00293958 0
-0.0280558 0.0456402 0
-0.0265471 0.000843438 0
-0.00375607 0.0379858 0
-0.0280558 0.0456402 0
-0.0201415 0.0669445 0
-0.00327954 0.0252604 0
-0.0280558 0.0456402 0
-0.0265471 0.000843438 0
-0.00327954 0.0252604 0
0.0173367 -0.00450569 0
-0.0201415 0.0669445 0
-0.00327954 0.0252604 0
-0.0201978 0.0555871 0
-0.0158957 0.0118387 0
-0.00327954 0.0252604 0
0.0173367 -0.00450569 0
-0.0158957 0.0118387 0
-0.0159756 -0.0148813 0
-0.0201978 0.0555871 0
-0.0158957 0.0118387 0
0.0103509 0.0339123 0
0.021853 0.0146532 0
-0.0158957 0.0118387 0
-0.0159756 -0.0148813 0
0.021853 0.0146532 0
0.00792251 -0.00149482 0
0 0 0
0 0 0
-0.023882 -0.00395072 0
-0.0174763 -0.00409975 0
0 0 0
0 0 0
-0.0174763 -0.00409975 0
-0.00431546 -0.0109589 0
-0.023882 -0.00395072 0
-0.0174763 -0.00409975 0
-0.0443603 -0.00293958 0
-0.0421009 -0.0159124 0
-0.0174763 -0.00409975 0
-0.00431546 -0.0109589 0
-0.0421009 -0.0159124 0
-0.0285508 -0.0297531 0
-0.0443603 -0.00293958 0
-0.0421009 -0.0159124 0
-0.0265471 0.000843438 0
-0.0302745 -0.0183393 0
-0.0421009 -0.0159124 0
-0.0285508 -0.0297531 0
-0.0302745 -0.0183393 0
-0.0307501 -0.042514 0
-0.0265471 0.000843438 0
-0.0302745 -0.0183393 0
0.0173367 -0.00450569 0
0.00941201 0.000157199 0
-0.0302745 -0.0183393 0
-0.0307501 -0.042514 0
0.00941201 0.000157199 0
-0.0109713 -0.0367326 0
0.0173367 -0.00450569 0
0.00941201 0.000157199 0
-0.0159756 -0.0148813 0
-0.00383953 0.00562475 0
0.00941201 0.000157199 0
-0.0109713 -0.0367326 0
-0.00383953 0.00562475 0
-0.000502061 -0.0223175 0
-0.0159756 -0.0148813 0
-0.00383953 0.00562475 0
0.00792251 -0.00149482 0
0.00343938 -0.0174079 0
-0.00383953 0.00562475 0
-0.000502061 -0.0223175 0
0.00343938 -0.0174079 0
0.00335718 -0.00330944 0
0 0 0
0 0 0
-0.00431546 -0.0109589 0
0.00262049 0.00287863 0
0 0 0
0 0 0
0.00262049 0.00287863 0
0 0 0
-0.00431546 -0.0109589 0
0.00262049 0.00287863 0
-0.0285508 -0.0297531 0
-0.0108104 -0.00697014 0
0.00262049 0.00287863 0
0 0 0
-0.0108104 -0.00697014 0
0 0 0
-0.0285508 -0.0297531 0
-0.0108104 -0.00697014 0
-0.0307501 -0.042514 0
-0.0131666 -0.0354998 0
-0.0108104 -0.00697014 0
0 0 0
-0.0131666 -0.0354998 0
0 0 0
-0.0307501 -0.042514 0
-0.0131666 -0.0354998 0
-0.0109713 -0.0367326 0
-0.00998478 -0.0628036 0
-0.0131666 -0.0354998 0
0 0 0
-0.00998478 -0.0628036 0
0 0 0
-0.0109713 -0.0367326 0
-0.00998478 -0.0628036 0
-0.000502061 -0.0223175 0
-0.00197178 -0.0768923 0
-0.00998478 -0.0628036 0
0 0 0
-0.00197178 -0.0768923 0
0 0 0
-0.000502061 -0.0223175 0
-0.00197178 -0.0768923 0
0.00335718 -0.00330944 0
-0.00526144 -0.0853742 0
-0.00197178 -0.0768923 0
0 0 0
-0.00526144 -0.0853742 0
0 0 0
0.177886 0.00819549 0
0.178109 0.00782246 0
0.182496 0.00737799 0
0.172427 0.00595913 0
0.178109 0.00782246 0
0.132129 0.0034447 0
0.172427 0.00595913 0
0.13094 0.00268283 0
0.182496 0.00737799 0
0.172427 0.00595913 0
0.184356 0.00501275 0
0.168915 0.00390859 0
0.172427 0.00595913 0
0.13094 0.00268283 0
0.168915 0.00390859 0
0.129812 0.00189998 0
0.167155 0.00680744 0
0.107067 0.00593925 0
0.163116 0.0066561 0
0.109568 0.00574045 0
0.107067 0.00593925 0
0.227886 -0.000171232 0
0.109568 0.00574045 0
0.215145 -0.00016095 0
0.163116 0.0066561 0
0.109568 0.00574045 0
0.159079 0.0065846 0
0.111644 0.00524483 0
0.109568 0.00574045 0
0.215145 -0.00016095 0
0.111644 0.00524483 0
0.203513 -0.000147179 0
0.159079 0.0065846 0
0.111644 0.00524483 0
0.154957 0.0062145 0
0.113558 0.00498944 0
0.111644 0.00524483 0
0.203513 -0.000147179 0
0.113558 0.00498944 0
0.192796 -0.000135326 0
0.154957 0.0062145 0
0.113558 0.00498944 0
0.151293 0.00565578 0
0.115226 0.00452047 0
0.113558 0.00498944 0
0.192796 -0.000135326 0
0.115226 0.00452047 0
0.182983 -0.000118292 0
0.151293 0.00565578 0
0.115226 0.00452047 0
0.14808 0.00528143 0
0.116622 0.00428927 0
0.115226 0.00452047 0
0.182983 -0.000118292 0
0.116622 0.00428927 0
0.174092 -0.00010065 0
0.14808 0.00528143 0
0.116622 0.00428927 0
0.145172 0.0051393 0
0.117704 0.00389748 0
0.116622 0.00428927 0
0.174092 -0.00010065 0
0.117704 0.00389748 0
0.16612 -7.99223e-05 0
0.145172 0.0051393 0
0.117704 0.00389748 0
0.142517 0.0049754 0
0.118428 0.00384263 0
0.117704 0.00389748 0
0.16612 -7.99223e-05 0
0.118428 0.00384263 0
0.158973 -7.23464e-05 0
0.142517 0.0049754 0
0.118428 0.00384263 0
0.140076 0.00483081 0
0.118801 0.00345003 0
0.118428 0.00384263 0
0.158973 -7.23464e-05 0
0.118801 0.00345003 0
0.15251 -5.67797e-05 0
0.140076 0.00483081 0
0.118801 0.00345003 0
0.137823 0.0046497 0
0.118817 0.00348104 0
0.118801 0.00345003 0
0.15251 -5.67797e-05 0
0.118817 0.00348104 0
0.146714 -4.15121e-05 0
0.137823 0.0046497 0
0.118817 0.00348104 0
0.135673 0.00484601 0
0.118539 0.00313526 0
0.118817 0.00348104 0
0.146714 -4.15121e-05 0
0.118539 0.00313526 0
0.141598 -1.91971e-05 0
0.135673 0.00484601 0
0.118539 0.00313526 0
0.133707 0.00421257 0
0.118121 0.00312758 0
0.118539 0.00313526 0
0.141598 -1.91971e-05 0
0.118121 0.00312758 0
0.13701 -3.59779e-05 0
0.133707 0.00421257 0
0.118121 0.00312758 0
0.132129 0.0034447 0
0.117749 0.00242302 0
0.118121 0.00312758 0
0.13701 -3.59779e-05 0