# vtk DataFile Version 3.0
#This file was generated by the deal.II library on 2026/3/26 at 11:14:45
ASCII
DATASET UNSTRUCTURED_GRID

POINTS 3648 double
0 0 0
0.214286 0 0
0 0.25 0
0.214286 0.25 0
0 0.25 0
0.214286 0.25 0
0 0.5 0
0.214286 0.5 0
0.214286 0 0
0.428571 0 0
0.214286 0.25 0
0.428571 0.25 0
0.214286 0.25 0
0.428571 0.25 0
0.214286 0.5 0
0.428571 0.5 0
0.428571 0 0
0.642857 0 0
0.428571 0.25 0
0.642857 0.25 0
0.428571 0.25 0
0.642857 0.25 0
0.428571 0.5 0
0.642857 0.5 0
0.428571 0.5 0
0.642857 0.5 0
0.428571 0.75 0
0.642857 0.75 0
0.642857 0 0
0.857143 0 0
0.642857 0.25 0
0.857143 0.25 0
0.642857 0.25 0
0.857143 0.25 0
0.642857 0.5 0
0.857143 0.5 0
0.642857 0.5 0
0.857143 0.5 0
0.642857 0.75 0
0.857143 0.75 0
0.857143 0 0
1.07143 0 0
0.857143 0.25 0
1.07143 0.25 0
0.857143 0.25 0
1.07143 0.25 0
0.857143 0.5 0
1.07143 0.5 0
0.857143 0.5 0
1.07143 0.5 0
0.857143 0.75 0
1.07143 0.75 0
1.07143 0 0
1.28571 0 0
1.07143 0.25 0
1.28571 0.25 0
1.07143 0.25 0
1.28571 0.25 0
1.07143 0.5 0
1.28571 0.5 0
1.07143 0.5 0
1.28571 0.5 0
1.07143 0.75 0
1.28571 0.75 0
1.28571 0 0
1.5 0 0
1.28571 0.25 0
1.5 0.25 0
1.28571 0.25 0
1.5 0.25 0
1.28571 0.5 0
1.5 0.5 0
1.5 0 0
1.71429 0 0
1.5 0.25 0
1.71429 0.25 0
1.5 0.25 0
1.71429 0.25 0
1.5 0.5 0
1.71429 0.5 0
1.71429 0 0
1.92857 0 0
1.71429 0.25 0
1.92857 0.25 0
1.71429 0.25 0
1.92857 0.25 0
1.71429 0.5 0
1.92857 0.5 0
1.92857 0 0
2.14286 0 0
1.92857 0.25 0
2.14286 0.25 0
1.92857 0.25 0
2.14286 0.25 0
1.92857 0.5 0
2.14286 0.5 0
0 3 0
0 2.75 0
0.214286 3 0
0.214286 2.75 0
0.214286 3 0
0.214286 2.75 0
0.428571 3 0
0.428571 2.75 0
0.428571 3 0
0.428571 2.75 0
0.642857 3 0
0.642857 2.75 0
0.642857 3 0
0.642857 2.75 0
0.857143 3 0
0.857143 2.75 0
0.857143 3 0
0.857143 2.75 0
1.07143 3 0
1.07143 2.75 0
1.07143 3 0
1.07143 2.75 0
1.28571 3 0
1.28571 2.75 0
1.28571 3 0
1.28571 2.75 0
1.5 3 0
1.5 2.75 0
1.5 3 0
1.5 2.75 0
1.71429 3 0
1.71429 2.75 0
1.71429 3 0
1.71429 2.75 0
1.92857 3 0
1.92857 2.75 0
1.92857 3 0
1.92857 2.75 0
2.14286 3 0
2.14286 2.75 0
0 2.75 0
0 2.5 0
0.214286 2.75 0
0.214286 2.5 0
0.214286 2.75 0
0.214286 2.5 0
0.428571 2.75 0
0.428571 2.5 0
0.428571 2.75 0
0.428571 2.5 0
0.642857 2.75 0
0.642857 2.5 0
0.642857 2.75 0
0.642857 2.5 0
0.857143 2.75 0
0.857143 2.5 0
0.857143 2.75 0
0.857143 2.5 0
1.07143 2.75 0
1.07143 2.5 0
1.07143 2.75 0
1.07143 2.5 0
1.28571 2.75 0
1.28571 2.5 0
1.28571 2.75 0
1.28571 2.5 0
1.5 2.75 0
1.5 2.5 0
1.5 2.75 0
1.5 2.5 0
1.71429 2.75 0
1.71429 2.5 0
1.71429 2.75 0
1.71429 2.5 0
1.92857 2.75 0
1.92857 2.5 0
1.92857 2.75 0
1.92857 2.5 0
2.14286 2.75 0
2.14286 2.5 0
0.428571 2.5 0
0.428571 2.25 0
0.642857 2.5 0
0.642857 2.25 0
0.642857 2.5 0
0.642857 2.25 0
0.857143 2.5 0
0.857143 2.25 0
0.857143 2.5 0
0.857143 2.25 0
1.07143 2.5 0
1.07143 2.25 0
1.07143 2.5 0
1.07143 2.25 0
1.28571 2.5 0
1.28571 2.25 0
0.214286 0.75 0
0.321429 0.75 0
0.214286 0.875 0
0.321429 0.875 0
0.321429 0.75 0
0.428571 0.75 0
0.321429 0.875 0
0.428571 0.875 0
0.214286 0.875 0
0.321429 0.875 0
0.214286 1 0
0.321429 1 0
0.321429 0.875 0
0.428571 0.875 0
0.321429 1 0
0.428571 1 0
0.428571 0.75 0
0.535714 0.75 0
0.428571 0.875 0
0.535714 0.875 0
0.535714 0.75 0
0.642857 0.75 0
0.535714 0.875 0
0.642857 0.875 0
0.428571 0.875 0
0.535714 0.875 0
0.428571 1 0
0.535714 1 0
0.535714 0.875 0
0.642857 0.875 0
0.535714 1 0
0.642857 1 0
0.642857 0.75 0
0.75 0.75 0
0.642857 0.875 0
0.75 0.875 0
0.75 0.75 0
0.857143 0.75 0
0.75 0.875 0
0.857143 0.875 0
0.642857 0.875 0
0.75 0.875 0
0.642857 1 0
0.75 1 0
0.75 0.875 0
0.857143 0.875 0
0.75 1 0
0.857143 1 0
0.857143 0.75 0
0.964286 0.75 0
0.857143 0.875 0
0.964286 0.875 0
0.964286 0.75 0
1.07143 0.75 0
0.964286 0.875 0
1.07143 0.875 0
0.857143 0.875 0
0.964286 0.875 0
0.857143 1 0
0.964286 1 0
0.964286 0.875 0
1.07143 0.875 0
0.964286 1 0
1.07143 1 0
1.07143 0.75 0
1.17857 0.75 0
1.07143 0.875 0
1.17857 0.875 0
1.17857 0.75 0
1.28571 0.75 0
1.17857 0.875 0
1.28571 0.875 0
1.07143 0.875 0
1.17857 0.875 0
1.07143 1 0
1.17857 1 0
1.17857 0.875 0
1.28571 0.875 0
1.17857 1 0
1.28571 1 0
0.214286 2 0
0.214286 1.875 0
0.321429 2 0
0.321429 1.875 0
0.214286 1.875 0
0.214286 1.75 0
0.321429 1.875 0
0.321429 1.75 0
0.321429 2 0
0.321429 1.875 0
0.428571 2 0
0.428571 1.875 0
0.321429 1.875 0
0.321429 1.75 0
0.428571 1.875 0
0.428571 1.75 0
0.428571 2 0
0.428571 1.875 0
0.535714 2 0
0.535714 1.875 0
0.428571 1.875 0
0.428571 1.75 0
0.535714 1.875 0
0.535714 1.75 0
0.535714 2 0
0.535714 1.875 0
0.642857 2 0
0.642857 1.875 0
0.535714 1.875 0
0.535714 1.75 0
0.642857 1.875 0
0.642857 1.75 0
0.642857 2 0
0.642857 1.875 0
0.75 2 0
0.75 1.875 0
0.642857 1.875 0
0.642857 1.75 0
0.75 1.875 0
0.75 1.75 0
0.75 2 0
0.75 1.875 0
0.857143 2 0
0.857143 1.875 0
0.75 1.875 0
0.75 1.75 0
0.857143 1.875 0
0.857143 1.75 0
0.857143 2 0
0.857143 1.875 0
0.964286 2 0
0.964286 1.875 0
0.857143 1.875 0
0.857143 1.75 0
0.964286 1.875 0
0.964286 1.75 0
0.964286 2 0
0.964286 1.875 0
1.07143 2 0
1.07143 1.875 0
0.964286 1.875 0
0.964286 1.75 0
1.07143 1.875 0
1.07143 1.75 0
1.07143 2 0
1.07143 1.875 0
1.17857 2 0
1.17857 1.875 0
1.07143 1.875 0
1.07143 1.75 0
1.17857 1.875 0
1.17857 1.75 0
1.17857 2 0
1.17857 1.875 0
1.28571 2 0
1.28571 1.875 0
1.17857 1.875 0
1.17857 1.75 0
1.28571 1.875 0
1.28571 1.75 0
0.214286 1.25 0
0.214286 1.125 0
0.321429 1.25 0
0.321429 1.125 0
0.214286 1.125 0
0.214286 1 0
0.321429 1.125 0
0.321429 1 0
0.321429 1.25 0
0.321429 1.125 0
0.428571 1.25 0
0.428571 1.125 0
0.321429 1.125 0
0.321429 1 0
0.428571 1.125 0
0.428571 1 0
0.428571 1.25 0
0.428571 1.125 0
0.535714 1.25 0
0.535714 1.125 0
0.428571 1.125 0
0.428571 1 0
0.535714 1.125 0
0.535714 1 0
0.535714 1.25 0
0.535714 1.125 0
0.642857 1.25 0
0.642857 1.125 0
0.535714 1.125 0
0.535714 1 0
0.642857 1.125 0
0.642857 1 0
0.642857 1.25 0
0.642857 1.125 0
0.75 1.25 0
0.75 1.125 0
0.642857 1.125 0
0.642857 1 0
0.75 1.125 0
0.75 1 0
0.75 1.25 0
0.75 1.125 0
0.857143 1.25 0
0.857143 1.125 0
0.75 1.125 0
0.75 1 0
0.857143 1.125 0
0.857143 1 0
0.857143 1.25 0
0.857143 1.125 0
0.964286 1.25 0
0.964286 1.125 0
0.857143 1.125 0
0.857143 1 0
0.964286 1.125 0
0.964286 1 0
0.964286 1.25 0
0.964286 1.125 0
1.07143 1.25 0
1.07143 1.125 0
0.964286 1.125 0
0.964286 1 0
1.07143 1.125 0
1.07143 1 0
1.07143 1.25 0
1.07143 1.125 0
1.17857 1.25 0
1.17857 1.125 0
1.07143 1.125 0
1.07143 1 0
1.17857 1.125 0
1.17857 1 0
1.17857 1.25 0
1.17857 1.125 0
1.28571 1.25 0
1.28571 1.125 0
1.17857 1.125 0
1.17857 1 0
1.28571 1.125 0
1.28571 1 0
0.214286 2.25 0
0.214286 2.125 0
0.321429 2.25 0
0.321429 2.125 0
0.214286 2.125 0
0.214286 2 0
0.321429 2.125 0
0.321429 2 0
0.321429 2.25 0
0.321429 2.125 0
0.428571 2.25 0
0.428571 2.125 0
0.321429 2.125 0
0.321429 2 0
0.428571 2.125 0
0.428571 2 0
0.428571 2.25 0
0.428571 2.125 0
0.535714 2.25 0
0.535714 2.125 0
0.428571 2.125 0
0.428571 2 0
0.535714 2.125 0
0.535714 2 0
0.535714 2.25 0
0.535714 2.125 0
0.642857 2.25 0
0.642857 2.125 0
0.535714 2.125 0
0.535714 2 0
0.642857 2.125 0
0.642857 2 0
0.642857 2.25 0
0.642857 2.125 0
0.75 2.25 0
0.75 2.125 0
0.642857 2.125 0
0.642857 2 0
0.75 2.125 0
0.75 2 0
0.75 2.25 0
0.75 2.125 0
0.857143 2.25 0
0.857143 2.125 0
0.75 2.125 0
0.75 2 0
0.857143 2.125 0
0.857143 2 0
0.857143 2.25 0
0.857143 2.125 0
0.964286 2.25 0
0.964286 2.125 0
0.857143 2.125 0
0.857143 2 0
0.964286 2.125 0
0.964286 2 0
0.964286 2.25 0
0.964286 2.125 0
1.07143 2.25 0
1.07143 2.125 0
0.964286 2.125 0
0.964286 2 0
1.07143 2.125 0
1.07143 2 0
1.07143 2.25 0
1.07143 2.125 0
1.17857 2.25 0
1.17857 2.125 0
1.07143 2.125 0
1.07143 2 0
1.17857 2.125 0
1.17857 2 0
1.17857 2.25 0
1.17857 2.125 0
1.28571 2.25 0
1.28571 2.125 0
1.17857 2.125 0
1.17857 2 0
1.28571 2.125 0
1.28571 2 0
0 0.5 0
0.107143 0.5 0
0 0.625 0
0.107143 0.625 0
0.107143 0.5 0
0.214286 0.5 0
0.107143 0.625 0
0.214286 0.625 0
0 0.625 0
0.107143 0.625 0
0 0.75 0
0.107143 0.75 0
0.107143 0.625 0
0.214286 0.625 0
0.107143 0.75 0
0.214286 0.75 0
0.214286 0.5 0
0.321429 0.5 0
0.214286 0.625 0
0.321429 0.625 0
0.321429 0.5 0
0.428571 0.5 0
0.321429 0.625 0
0.428571 0.625 0
0.214286 0.625 0
0.321429 0.625 0
0.214286 0.75 0
0.321429 0.75 0
0.321429 0.625 0
0.428571 0.625 0
0.321429 0.75 0
0.428571 0.75 0
1.28571 0.5 0
1.39286 0.5 0
1.28571 0.625 0
1.39286 0.625 0
1.39286 0.5 0
1.5 0.5 0
1.39286 0.625 0
1.5 0.625 0
1.28571 0.625 0
1.39286 0.625 0
1.28571 0.75 0
1.39286 0.75 0
1.39286 0.625 0
1.5 0.625 0
1.39286 0.75 0
1.5 0.75 0
1.28571 0.75 0
1.39286 0.75 0
1.28571 0.875 0
1.39286 0.875 0
1.39286 0.75 0
1.5 0.75 0
1.39286 0.875 0
1.5 0.875 0
1.28571 0.875 0
1.39286 0.875 0
1.28571 1 0
1.39286 1 0
1.39286 0.875 0
1.5 0.875 0
1.39286 1 0
1.5 1 0
1.5 0.5 0
1.60714 0.5 0
1.5 0.625 0
1.60714 0.625 0
1.60714 0.5 0
1.71429 0.5 0
1.60714 0.625 0
1.71429 0.625 0
1.5 0.625 0
1.60714 0.625 0
1.5 0.75 0
1.60714 0.75 0
1.60714 0.625 0
1.71429 0.625 0
1.60714 0.75 0
1.71429 0.75 0
1.71429 0.5 0
1.82143 0.5 0
1.71429 0.625 0
1.82143 0.625 0
1.82143 0.5 0
1.92857 0.5 0
1.82143 0.625 0
1.92857 0.625 0
1.71429 0.625 0
1.82143 0.625 0
1.71429 0.75 0
1.82143 0.75 0
1.82143 0.625 0
1.92857 0.625 0
1.82143 0.75 0
1.92857 0.75 0
1.92857 0.5 0
2.03571 0.5 0
1.92857 0.625 0
2.03571 0.625 0
2.03571 0.5 0
2.14286 0.5 0
2.03571 0.625 0
2.14286 0.625 0
1.92857 0.625 0
2.03571 0.625 0
1.92857 0.75 0
2.03571 0.75 0
2.03571 0.625 0
2.14286 0.625 0
2.03571 0.75 0
2.14286 0.75 0
2.14286 0 0
2.25 0 0
2.14286 0.125 0
2.25 0.125 0
2.25 0 0
2.35714 0 0
2.25 0.125 0
2.35714 0.125 0
2.14286 0.125 0
2.25 0.125 0
2.14286 0.25 0
2.25 0.25 0
2.25 0.125 0
2.35714 0.125 0
2.25 0.25 0
2.35714 0.25 0
2.14286 0.25 0
2.25 0.25 0
2.14286 0.375 0
2.25 0.375 0
2.25 0.25 0
2.35714 0.25 0
2.25 0.375 0
2.35714 0.375 0
2.14286 0.375 0
2.25 0.375 0
2.14286 0.5 0
2.25 0.5 0
2.25 0.375 0
2.35714 0.375 0
2.25 0.5 0
2.35714 0.5 0
2.14286 0.5 0
2.25 0.5 0
2.14286 0.625 0
2.25 0.625 0
2.25 0.5 0
2.35714 0.5 0
2.25 0.625 0
2.35714 0.625 0
2.14286 0.625 0
2.25 0.625 0
2.14286 0.75 0
2.25 0.75 0
2.25 0.625 0
2.35714 0.625 0
2.25 0.75 0
2.35714 0.75 0
2.35714 0 0
2.46429 0 0
[...]
POINT_DATA 3648
VECTORS velocity double
0 0 0
0 0 0
0 0 0
-0.0093771 0.0105983 0
0 0 0
-0.0093771 0.0105983 0
0 0 0
-0.00187617 0.0240757 0
0 0 0
0 0 0
-0.0093771 0.0105983 0
-0.0311361 0.0145097 0
-0.0093771 0.0105983 0
-0.0311361 0.0145097 0
-0.00187617 0.0240757 0
-0.0038846 0.029293 0
0 0 0
0 0 0
-0.0311361 0.0145097 0
-0.0539517 0.0123006 0
-0.0311361 0.0145097 0
-0.0539517 0.0123006 0
-0.0038846 0.029293 0
-0.00563215 0.0265027 0
-0.0038846 0.029293 0
-0.00563215 0.0265027 0
0.0196549 0.0185925 0
0.0389849 0.0170223 0
0 0 0
0 0 0
-0.0539517 0.0123006 0
-0.0655751 0.00173371 0
-0.0539517 0.0123006 0
-0.0655751 0.00173371 0
-0.00563215 0.0265027 0
-0.000728025 -0.00533782 0
-0.00563215 0.0265027 0
-0.000728025 -0.00533782 0
0.0389849 0.0170223 0
0.0428719 -0.0063247 0
0 0 0
0 0 0
-0.0655751 0.00173371 0
-0.0553927 -0.0129845 0
-0.0655751 0.00173371 0
-0.0553927 -0.0129845 0
-0.000728025 -0.00533782 0
0.00273683 -0.0217928 0
-0.000728025 -0.00533782 0
0.00273683 -0.0217928 0
0.0428719 -0.0063247 0
0.0275411 -0.00653652 0
0 0 0
0 0 0
-0.0553927 -0.0129845 0
-0.0146358 -0.0363356 0
-0.0553927 -0.0129845 0
-0.0146358 -0.0363356 0
0.00273683 -0.0217928 0
-0.0212645 -0.0469005 0
0.00273683 -0.0217928 0
-0.0212645 -0.0469005 0
0.0275411 -0.00653652 0
0.0155136 -0.0205887 0
0 0 0
0 0 0
-0.0146358 -0.0363356 0
0.0606515 -0.0525549 0
-0.0146358 -0.0363356 0
0.0606515 -0.0525549 0
-0.0212645 -0.0469005 0
-0.0635512 -0.0790285 0
0 0 0
0 0 0
0.0606515 -0.0525549 0
0.0707774 0.0406159 0
0.0606515 -0.0525549 0
0.0707774 0.0406159 0
-0.0635512 -0.0790285 0
-0.061841 0.0513029 0
0 0 0
0 0 0
0.0707774 0.0406159 0
0.0232419 0.0144196 0
0.0707774 0.0406159 0
0.0232419 0.0144196 0
-0.061841 0.0513029 0
-0.0431949 0.0380119 0
0 0 0
0 0 0
0.0232419 0.0144196 0
-0.0144657 0.0282827 0
0.0232419 0.0144196 0
-0.0144657 0.0282827 0
-0.0431949 0.0380119 0
-0.00956907 0.00891726 0
0 0 0
0 0 0
0 0 0
-0.00925451 -0.0104603 0
0 0 0
-0.00925451 -0.0104603 0
0 0 0
-0.0308597 -0.0144648 0
0 0 0
-0.0308597 -0.0144648 0
0 0 0
-0.0537576 -0.0124244 0
0 0 0
-0.0537576 -0.0124244 0
0 0 0
-0.0656 -0.00185889 0
0 0 0
-0.0656 -0.00185889 0
0 0 0
-0.055568 0.0129316 0
0 0 0
-0.055568 0.0129316 0
0 0 0
-0.0150384 0.0360975 0
0 0 0
-0.0150384 0.0360975 0
0 0 0
0.0599361 0.0524478 0
0 0 0
0.0599361 0.0524478 0
0 0 0
0.0702339 -0.0402888 0
0 0 0
0.0702339 -0.0402888 0
0 0 0
0.0231654 -0.0141912 0
0 0 0
0.0231654 -0.0141912 0
0 0 0
-0.0144736 -0.028433 0
0 0 0
0 0 0
-0.00925451 -0.0104603 0
-0.00185716 -0.0237838 0
-0.00925451 -0.0104603 0
-0.00185716 -0.0237838 0
-0.0308597 -0.0144648 0
-0.00392447 -0.0293033 0
-0.0308597 -0.0144648 0
-0.00392447 -0.0293033 0
-0.0537576 -0.0124244 0
-0.00567796 -0.0266894 0
-0.0537576 -0.0124244 0
-0.00567796 -0.0266894 0
-0.0656 -0.00185889 0
-0.000812152 0.00494595 0
-0.0656 -0.00185889 0
-0.000812152 0.00494595 0
-0.055568 0.0129316 0
0.00262093 0.0217997 0
-0.055568 0.0129316 0
0.00262093 0.0217997 0
-0.0150384 0.0360975 0
-0.0211137 0.0466287 0
-0.0150384 0.0360975 0
-0.0211137 0.0466287 0
0.0599361 0.0524478 0
-0.0633012 0.0787228 0
0.0599361 0.0524478 0
-0.0633012 0.0787228 0
0.0702339 -0.0402888 0
-0.0616407 -0.0507042 0
0.0702339 -0.0402888 0
-0.0616407 -0.0507042 0
0.0231654 -0.0141912 0
-0.043263 -0.03779 0
0.0231654 -0.0141912 0
-0.043263 -0.03779 0
-0.0144736 -0.028433 0
-0.00948965 -0.00881418 0
-0.00392447 -0.0293033 0
0.019528 -0.0186024 0
-0.00567796 -0.0266894 0
0.038899 -0.0171633 0
-0.00567796 -0.0266894 0
0.038899 -0.0171633 0
-0.000812152 0.00494595 0
0.0429758 0.00607126 0
-0.000812152 0.00494595 0
0.0429758 0.00607126 0
0.00262093 0.0217997 0
0.0278539 0.00662515 0
0.00262093 0.0217997 0
0.0278539 0.00662515 0
-0.0211137 0.0466287 0
0.0157291 0.0204234 0
0.00469003 0.0184279 0
0.0128586 0.0205296 0
0.00258717 0.0107513 0
0.00799837 0.012204 0
0.0128586 0.0205296 0
0.0196549 0.0185925 0
0.00799837 0.012204 0
0.0165203 0.00918786 0
0.00258717 0.0107513 0
0.00799837 0.012204 0
0.0530116 -0.0035126 0
0.0753312 -0.00513586 0
0.00799837 0.012204 0
0.0165203 0.00918786 0
0.0753312 -0.00513586 0
0.0942286 -0.00516876 0
0.0196549 0.0185925 0
0.0291227 0.0174224 0
0.0165203 0.00918786 0
0.023765 0.00758746 0
0.0291227 0.0174224 0
0.0389849 0.0170223 0
0.023765 0.00758746 0
0.0316366 0.00654139 0
0.0165203 0.00918786 0
0.023765 0.00758746 0
0.0942286 -0.00516876 0
0.11047 -0.00562945 0
0.023765 0.00758746 0
0.0316366 0.00654139 0
0.11047 -0.00562945 0
0.1243 -0.00611657 0
0.0389849 0.0170223 0
0.0449293 0.00612712 0
0.0316366 0.00654139 0
0.0380385 0.00280966 0
0.0449293 0.00612712 0
0.0428719 -0.0063247 0
0.0380385 0.00280966 0
0.0395885 -0.00165037 0
0.0316366 0.00654139 0
0.0380385 0.00280966 0
0.1243 -0.00611657 0
0.136474 -0.00699341 0
0.0380385 0.00280966 0
0.0395885 -0.00165037 0
0.136474 -0.00699341 0
0.147558 -0.00751809 0
0.0428719 -0.0063247 0
0.0360613 -0.00709734 0
0.0395885 -0.00165037 0
0.0390991 -0.00266284 0
0.0360613 -0.00709734 0
0.0275411 -0.00653652 0
0.0390991 -0.00266284 0
0.0409969 -0.00276804 0
0.0395885 -0.00165037 0
0.0390991 -0.00266284 0
0.147558 -0.00751809 0
0.157501 -0.00893223 0
0.0390991 -0.00266284 0
0.0409969 -0.00276804 0
0.157501 -0.00893223 0
0.16611 -0.00986944 0
0.0275411 -0.00653652 0
0.0198067 -0.0125549 0
0.0409969 -0.00276804 0
0.0418391 -0.00779427 0
0.0198067 -0.0125549 0
0.0155136 -0.0205887 0
0.0418391 -0.00779427 0
0.0355808 -0.0124693 0
0.0409969 -0.00276804 0
0.0418391 -0.00779427 0
0.16611 -0.00986944 0
0.173454 -0.0111861 0
0.0418391 -0.00779427 0
0.0355808 -0.0124693 0
0.173454 -0.0111861 0
0.179698 -0.00960489 0
0.0530622 0.00353435 0
0.241657 0.0136529 0
0.0754178 0.00517226 0
0.234734 0.0126537 0
0.241657 0.0136529 0
0.160834 0.00673464 0
0.234734 0.0126537 0
0.156152 0.00631439 0
0.0754178 0.00517226 0
0.234734 0.0126537 0
0.0943323 0.0052168 0
0.228248 0.011435 0
0.234734 0.0126537 0
0.156152 0.00631439 0
0.228248 0.011435 0
0.15199 0.00572653 0
0.0943323 0.0052168 0
0.228248 0.011435 0
0.11058 0.00566883 0
0.222196 0.0103009 0
0.228248 0.011435 0
0.15199 0.00572653 0
0.222196 0.0103009 0
0.148357 0.00527057 0
0.11058 0.00566883 0
0.222196 0.0103009 0
0.124408 0.00614415 0
0.21654 0.00981684 0
0.222196 0.0103009 0
0.148357 0.00527057 0
0.21654 0.00981684 0
0.145102 0.00509264 0
0.124408 0.00614415 0
0.21654 0.00981684 0
0.136583 0.00700298 0
0.210982 0.00947615 0
0.21654 0.00981684 0
0.145102 0.00509264 0
0.210982 0.00947615 0
0.142146 0.00492797 0
0.136583 0.00700298 0
0.210982 0.00947615 0
0.147668 0.00753587 0
0.205175 0.00958448 0
0.210982 0.00947615 0
0.142146 0.00492797 0
0.205175 0.00958448 0
0.13941 0.00488783 0
0.147668 0.00753587 0
0.205175 0.00958448 0
0.157609 0.00895828 0
0.198954 0.00962174 0
0.205175 0.00958448 0
0.13941 0.00488783 0
0.198954 0.00962174 0
0.13682 0.00481216 0
0.157609 0.00895828 0
0.198954 0.00962174 0
0.166218 0.00990558 0
0.192339 0.0101265 0
0.198954 0.00962174 0
0.13682 0.00481216 0
0.192339 0.0101265 0
0.134314 0.0049914 0
0.166218 0.00990558 0
0.192339 0.0101265 0
0.173568 0.0112232 0
0.185296 0.00980873 0
0.192339 0.0101265 0
0.134314 0.0049914 0
0.185296 0.00980873 0
0.131994 0.00450081 0
0.173568 0.0112232 0
0.185296 0.00980873 0
0.179807 0.00968739 0
0.178094 0.00874758 0
0.185296 0.00980873 0
0.131994 0.00450081 0
0.178094 0.00874758 0
0.130057 0.00384248 0
0.161016 -0.00671723 0
0.241932 -0.0136098 0
0.156371 -0.00629885 0
0.235018 -0.0126094 0
0.241932 -0.0136098 0
0.0530116 -0.0035126 0
0.235018 -0.0126094 0
0.0753312 -0.00513586 0
0.156371 -0.00629885 0
0.235018 -0.0126094 0
0.15224 -0.005712 0
0.228548 -0.0113945 0
0.235018 -0.0126094 0
0.0753312 -0.00513586 0
0.228548 -0.0113945 0
0.0942286 -0.00516876 0
0.15224 -0.005712 0
0.228548 -0.0113945 0
0.148632 -0.0052617 0
0.222511 -0.0102693 0
0.228548 -0.0113945 0
0.0942286 -0.00516876 0
0.222511 -0.0102693 0
0.11047 -0.00562945 0
0.148632 -0.0052617 0
0.222511 -0.0102693 0
0.145395 -0.00508721 0
0.216865 -0.00979999 0
0.222511 -0.0102693 0
0.11047 -0.00562945 0
0.216865 -0.00979999 0
0.1243 -0.00611657 0
0.145395 -0.00508721 0
0.216865 -0.00979999 0
0.142451 -0.00492514 0
0.211311 -0.00946493 0
0.216865 -0.00979999 0
0.1243 -0.00611657 0
0.211311 -0.00946493 0
0.136474 -0.00699341 0
0.142451 -0.00492514 0
0.211311 -0.00946493 0
0.139725 -0.00488103 0
0.205507 -0.00957346 0
0.211311 -0.00946493 0
0.136474 -0.00699341 0
0.205507 -0.00957346 0
0.147558 -0.00751809 0
0.139725 -0.00488103 0
0.205507 -0.00957346 0
0.137142 -0.00480591 0
0.19929 -0.00960384 0
0.205507 -0.00957346 0
0.147558 -0.00751809 0
0.19929 -0.00960384 0
0.157501 -0.00893223 0
0.137142 -0.00480591 0
0.19929 -0.00960384 0
0.134643 -0.00498279 0
0.192687 -0.0101053 0
0.19929 -0.00960384 0
0.157501 -0.00893223 0
0.192687 -0.0101053 0
0.16611 -0.00986944 0
0.134643 -0.00498279 0
0.192687 -0.0101053 0
0.132331 -0.0044849 0
0.185664 -0.00977526 0
0.192687 -0.0101053 0
0.16611 -0.00986944 0
0.185664 -0.00977526 0
0.173454 -0.0111861 0
0.132331 -0.0044849 0
0.185664 -0.00977526 0
0.130403 -0.00381564 0
0.178487 -0.00869888 0
0.185664 -0.00977526 0
0.173454 -0.0111861 0
0.178487 -0.00869888 0
0.179698 -0.00960489 0
0.00459203 -0.0182071 0
0.00245911 -0.0106575 0
0.0127145 -0.0203552 0
0.00772956 -0.0121196 0
0.00245911 -0.0106575 0
0.0530622 0.00353435 0
0.00772956 -0.0121196 0
0.0754178 0.00517226 0
0.0127145 -0.0203552 0
0.00772956 -0.0121196 0
0.019528 -0.0186024 0
0.0161981 -0.00914825 0
0.00772956 -0.0121196 0
0.0754178 0.00517226 0
0.0161981 -0.00914825 0
0.0943323 0.0052168 0
0.019528 -0.0186024 0
0.0161981 -0.00914825 0
0.029044 -0.017505 0
0.0234918 -0.00760626 0
0.0161981 -0.00914825 0
0.0943323 0.0052168 0
0.0234918 -0.00760626 0
0.11058 0.00566883 0
0.029044 -0.017505 0
0.0234918 -0.00760626 0
0.038899 -0.0171633 0
0.0314914 -0.00660736 0
0.0234918 -0.00760626 0
0.11058 0.00566883 0
0.0314914 -0.00660736 0
0.124408 0.00614415 0
0.038899 -0.0171633 0
0.0314914 -0.00660736 0
0.0448724 -0.00631195 0
0.0380318 -0.00287596 0
0.0314914 -0.00660736 0
0.124408 0.00614415 0
0.0380318 -0.00287596 0
0.136583 0.00700298 0
0.0448724 -0.00631195 0
0.0380318 -0.00287596 0
0.0429758 0.00607126 0
0.039696 0.00159906 0
0.0380318 -0.00287596 0
0.136583 0.00700298 0
0.039696 0.00159906 0
0.147668 0.00753587 0
0.0429758 0.00607126 0
0.039696 0.00159906 0
0.0363313 0.00699034 0
0.0392971 0.00264852 0
0.039696 0.00159906 0
0.147668 0.00753587 0
0.0392971 0.00264852 0
0.157609 0.00895828 0
0.0363313 0.00699034 0
0.0392971 0.00264852 0
0.0278539 0.00662515 0
0.0412084 0.00282443 0
0.0392971 0.00264852 0
0.157609 0.00895828 0
0.0412084 0.00282443 0
0.166218 0.00990558 0
0.0278539 0.00662515 0
0.0412084 0.00282443 0
0.0200869 0.0125465 0
0.0420576 0.00778786 0
0.0412084 0.00282443 0
0.166218 0.00990558 0
0.0420576 0.00778786 0
0.173568 0.0112232 0
0.0200869 0.0125465 0
0.0420576 0.00778786 0
0.0157291 0.0204234 0
0.035953 0.0124086 0
0.0420576 0.00778786 0
0.173568 0.0112232 0
0.035953 0.0124086 0
0.179807 0.00968739 0
0 0 0
-0.000423939 0.0122505 0
0 0 0
0.000570275 0.012176 0
-0.000423939 0.0122505 0
-0.00187617 0.0240757 0
0.000570275 0.012176 0
0.00109859 0.0252296 0
0 0 0
0.000570275 0.012176 0
0 0 0
-0.000587728 0.0122953 0
0.000570275 0.012176 0
0.00109859 0.0252296 0
-0.000587728 0.0122953 0
0.00469003 0.0184279 0
-0.00187617 0.0240757 0
-0.00336815 0.0266559 0
0.00109859 0.0252296 0
0.00290493 0.0252214 0
-0.00336815 0.0266559 0
-0.0038846 0.029293 0
0.00290493 0.0252214 0
0.0069814 0.0266446 0
0.00109859 0.0252296 0
0.00290493 0.0252214 0
0.00469003 0.0184279 0
0.0128586 0.0205296 0
0.00290493 0.0252214 0
0.0069814 0.0266446 0
0.0128586 0.0205296 0
0.0196549 0.0185925 0
-0.0212645 -0.0469005 0
-0.0418227 -0.0643907 0
-0.0039354 -0.0285964 0
-0.0236817 -0.0356479 0
-0.0418227 -0.0643907 0
-0.0635512 -0.0790285 0
-0.0236817 -0.0356479 0
-0.0552321 -0.0457433 0
-0.0039354 -0.0285964 0
-0.0236817 -0.0356479 0
0.0155136 -0.0205887 0
0.00616547 -0.00945122 0
-0.0236817 -0.0356479 0
-0.0552321 -0.0457433 0
0.00616547 -0.00945122 0
-0.0226074 -0.00171414 0
0.0155136 -0.0205887 0
0.00616547 -0.00945122 0
0.0355808 -0.0124693 0
0.0321358 -0.0028023 0
0.00616547 -0.00945122 0
-0.0226074 -0.00171414 0
0.0321358 -0.0028023 0
0.0464479 0.00829516 0
0.0355808 -0.0124693 0
0.0321358 -0.0028023 0
0.179698 -0.00960489 0
0.184785 -0.00810007 0
0.0321358 -0.0028023 0
0.0464479 0.00829516 0
0.184785 -0.00810007 0
0.187275 -0.00599935 0
-0.0635512 -0.0790285 0
-0.0746299 -0.0121305 0
-0.0552321 -0.0457433 0
-0.068926 -0.0155511 0
-0.0746299 -0.0121305 0
-0.061841 0.0513029 0
-0.068926 -0.0155511 0
-0.0546886 0.0229152 0
-0.0552321 -0.0457433 0
-0.068926 -0.0155511 0
-0.0226074 -0.00171414 0
-0.0367023 -0.0265631 0
-0.068926 -0.0155511 0
-0.0546886 0.0229152 0
-0.0367023 -0.0265631 0
-0.0311593 0.0107987 0
-0.061841 0.0513029 0
-0.0444074 0.0441925 0
-0.0546886 0.0229152 0
-0.040641 0.0357957 0
-0.0444074 0.0441925 0
-0.0431949 0.0380119 0
-0.040641 0.0357957 0
-0.0302028 0.0324712 0
-0.0546886 0.0229152 0
-0.040641 0.0357957 0
-0.0311593 0.0107987 0
-0.0301984 0.0307991 0
-0.040641 0.0357957 0
-0.0302028 0.0324712 0
-0.0301984 0.0307991 0
-0.0144885 0.0069953 0
-0.0431949 0.0380119 0
-0.0383988 0.0244566 0
-0.0302028 0.0324712 0
-0.00177099 -0.00873009 0
-0.0383988 0.0244566 0
-0.00956907 0.00891726 0
-0.00177099 -0.00873009 0
0.0111944 -0.00712176 0
-0.0302028 0.0324712 0
-0.00177099 -0.00873009 0
-0.0144885 0.0069953 0
-0.0182552 -0.0114428 0
-0.00177099 -0.00873009 0
0.0111944 -0.00712176 0
-0.0182552 -0.0114428 0
-0.0295768 -0.00607312 0
0 0 0
0 0 0
-0.00517569 0.00704235 0
-0.0400336 0.0335698 0
0 0 0
0 0 0
-0.0400336 0.0335698 0
-0.0399655 -0.0324777 0
-0.00517569 0.00704235 0
-0.0400336 0.0335698 0
-0.0144657 0.0282827 0
0.00970725 0.0249753 0
-0.0400336 0.0335698 0
-0.0399655 -0.0324777 0
0.00970725 0.0249753 0
0.0112624 -0.0251618 0
-0.0144657 0.0282827 0
0.00970725 0.0249753 0
-0.0129999 0.0376404 0
0.00482902 -0.0320796 0
0.00970725 0.0249753 0
0.0112624 -0.0251618 0
0.00482902 -0.0320796 0
-0.00731923 0.043234 0
-0.0129999 0.0376404 0
0.00482902 -0.0320796 0
-0.00956907 0.00891726 0
-0.00530507 -0.0272495 0
0.00482902 -0.0320796 0
-0.00731923 0.043234 0
-0.00530507 -0.0272495 0
-0.0210468 0.0699485 0
-0.00956907 0.00891726 0
-0.00530507 -0.0272495 0
0.0111944 -0.00712176 0
-0.012414 0.0110578 0
-0.00530507 -0.0272495 0
-0.0210468 0.0699485 0
-0.012414 0.0110578 0
-0.0177056 0.0557765 0
0.0111944 -0.00712176 0
-0.012414 0.0110578 0
-0.0295768 -0.00607312 0
-0.0097017 0.0142575 0
-0.012414 0.0110578 0
-0.0177056 0.0557765 0
-0.0097017 0.0142575 0
0.0132177 0.0321901 0
0 0 0
0 0 0
-0.0399655 -0.0324777 0
-0.0228041 0.0113374 0
0 0 0
0 0 0
-0.0228041 0.0113374 0
-0.0276525 -0.00469279 0
-0.0399655 -0.0324777 0
-0.0228041 0.0113374 0
0.0112624 -0.0251618 0
-0.0332448 0.0348065 0
-0.0228041 0.0113374 0
-0.0276525 -0.00469279 0
-0.0332448 0.0348065 0
-0.0465111 -0.00532635 0
0.0112624 -0.0251618 0
-0.0332448 0.0348065 0
-0.00731923 0.043234 0
-0.0286118 0.04328 0
-0.0332448 0.0348065 0
-0.0465111 -0.00532635 0
-0.0286118 0.04328 0
-0.0263759 -0.000254872 0
-0.00731923 0.043234 0
-0.0286118 0.04328 0
-0.0210468 0.0699485 0
-0.00266309 0.0199617 0
-0.0286118 0.04328 0
-0.0263759 -0.000254872 0
-0.00266309 0.0199617 0
0.0158645 -0.00127534 0
-0.0210468 0.0699485 0
-0.00266309 0.0199617 0
-0.0177056 0.0557765 0
-0.015726 0.0104015 0
-0.00266309 0.0199617 0
0.0158645 -0.00127534 0
-0.015726 0.0104015 0
-0.0174233 -0.0112171 0
-0.0177056 0.0557765 0
-0.015726 0.0104015 0
0.0132177 0.0321901 0
0.0263767 0.0159336 0
-0.015726 0.0104015 0
-0.0174233 -0.0112171 0
0.0263767 0.0159336 0
0.015097 -0.00178726 0
0 0 0
0 0 0
-0.0276525 -0.00469279 0
-0.0205314 -0.00431648 0
0 0 0
0 0 0
-0.0205314 -0.00431648 0
-0.0058176 -0.0124918 0
-0.0276525 -0.00469279 0
-0.0205314 -0.00431648 0
-0.0465111 -0.00532635 0
-0.0432953 -0.0165637 0
-0.0205314 -0.00431648 0
-0.0058176 -0.0124918 0
-0.0432953 -0.0165637 0
-0.0301953 -0.0320174 0
-0.0465111 -0.00532635 0
-0.0432953 -0.0165637 0
-0.0263759 -0.000254872 0
-0.0307954 -0.0206285 0
-0.0432953 -0.0165637 0
-0.0301953 -0.0320174 0
-0.0307954 -0.0206285 0
-0.0302277 -0.0438172 0
-0.0263759 -0.000254872 0
-0.0307954 -0.0206285 0
0.0158645 -0.00127534 0
0.00708372 -0.00462175 0
-0.0307954 -0.0206285 0
-0.0302277 -0.0438172 0
0.00708372 -0.00462175 0
-0.0114618 -0.0388446 0
0.0158645 -0.00127534 0
0.00708372 -0.00462175 0
-0.0174233 -0.0112171 0
-0.00329473 -0.000874548 0
0.00708372 -0.00462175 0
-0.0114618 -0.0388446 0
-0.00329473 -0.000874548 0
0.000405199 -0.0251788 0
-0.0174233 -0.0112171 0
-0.00329473 -0.000874548 0
0.015097 -0.00178726 0
0.00911237 -0.0205123 0
-0.00329473 -0.000874548 0
0.000405199 -0.0251788 0
0.00911237 -0.0205123 0
0.00481995 -0.00499065 0
0 0 0
0 0 0
-0.0058176 -0.0124918 0
0.00248953 0.0027358 0
0 0 0
0 0 0
0.00248953 0.0027358 0
0 0 0
-0.0058176 -0.0124918 0
0.00248953 0.0027358 0
-0.0301953 -0.0320174 0
-0.0119805 -0.00862099 0
0.00248953 0.0027358 0
0 0 0
-0.0119805 -0.00862099 0
0 0 0
-0.0301953 -0.0320174 0
-0.0119805 -0.00862099 0
-0.0302277 -0.0438172 0
-0.0130105 -0.0382775 0
-0.0119805 -0.00862099 0
0 0 0
-0.0130105 -0.0382775 0
0 0 0
-0.0302277 -0.0438172 0
-0.0130105 -0.0382775 0
-0.0114618 -0.0388446 0
-0.00985045 -0.0651831 0
-0.0130105 -0.0382775 0
0 0 0
-0.00985045 -0.0651831 0
0 0 0
-0.0114618 -0.0388446 0
-0.00985045 -0.0651831 0
0.000405199 -0.0251788 0
-0.00165273 -0.0786233 0
-0.00985045 -0.0651831 0
0 0 0
-0.00165273 -0.0786233 0
0 0 0
0.000405199 -0.0251788 0
-0.00165273 -0.0786233 0
0.00481995 -0.00499065 0
-0.00496322 -0.0862909 0
-0.00165273 -0.0786233 0
0 0 0
-0.00496322 -0.0862909 0
0 0 0
0.179807 0.00968739 0
0.178094 0.00874758 0
0.184912 0.00815238 0
0.17166 0.00684201 0
0.178094 0.00874758 0
0.130057 0.00384248 0
0.17166 0.00684201 0
0.128618 0.00290355 0
0.184912 0.00815238 0
0.17166 0.00684201 0
0.187423 0.00606456 0
0.167315 0.00466172 0
0.17166 0.00684201 0
0.128618 0.00290355 0
0.167315 0.00466172 0
0.127345 0.00218197 0
0.170338 0.00702448 0
0.0998073 0.00604803 0
0.165523 0.00684797 0
0.102917 0.00585656 0
0.0998073 0.00604803 0
0.231677 3.25277e-05 0
0.102917 0.00585656 0
0.218479 3.03018e-05 0
0.165523 0.00684797 0
0.102917 0.00585656 0
0.160834 0.00673464 0
0.105533 0.00536492 0
0.102917 0.00585656 0
0.218479 3.03018e-05 0
0.105533 0.00536492 0
0.206436 2.69217e-05 0
0.160834 0.00673464 0
0.105533 0.00536492 0
0.156152 0.00631439 0
0.107938 0.00509277 0
0.105533 0.00536492 0
0.206436 2.69217e-05 0
0.107938 0.00509277 0
0.195343 2.38135e-05 0
0.156152 0.00631439 0
0.107938 0.00509277 0
0.15199 0.00572653 0
0.110071 0.00461719 0
0.107938 0.00509277 0
0.195343 2.38135e-05 0
0.110071 0.00461719 0
0.185178 2.02995e-05 0
0.15199 0.00572653 0
0.110071 0.00461719 0
0.148357 0.00527057 0
0.111907 0.00434783 0
0.110071 0.00461719 0
0.185178 2.02995e-05 0
0.111907 0.00434783 0
0.175966 1.68147e-05 0
0.148357 0.00527057 0
0.111907 0.00434783 0
0.145102 0.00509264 0
0.113406 0.00394384 0
0.111907 0.00434783 0
0.175966 1.68147e-05 0
0.113406 0.00394384 0
0.167706 1.36228e-05 0
0.145102 0.00509264 0
0.113406 0.00394384 0
0.142146 0.00492797 0
0.11451 0.00387781 0
0.113406 0.00394384 0
0.167706 1.36228e-05 0
0.11451 0.00387781 0
0.160298 1.2969e-05 0
0.142146 0.00492797 0
0.11451 0.00387781 0
0.13941 0.00488783 0
0.115211 0.00353844 0
0.11451 0.00387781 0
0.160298 1.2969e-05 0
0.115211 0.00353844 0
0.153584 1.20467e-05 0
0.13941 0.00488783 0
0.115211 0.00353844 0
0.13682 0.00481216 0
0.115491 0.00357209 0
0.115211 0.00353844 0
0.153584 1.20467e-05 0
0.115491 0.00357209 0
0.147537 1.10493e-05 0
0.13682 0.00481216 0
0.115491 0.00357209 0
0.134314 0.0049914 0
0.115397 0.00323757 0
0.115491 0.00357209 0
0.147537 1.10493e-05 0
0.115397 0.00323757 0
0.142168 9.08473e-06 0
0.134314 0.0049914 0
0.115397 0.00323757 0
0.131994 0.00450081 0
0.115087 0.00329188 0
0.115397 0.00323757 0
0.142168 9.08473e-06 0
0.115087 0.00329188 0
0.137318 1.45399e-05 0
0.131994 0.00450081 0
0.115087 0.00329188 0
0.130057 0.00384248 0
0.114781 0.00266145 0
0.115087 0.00329188 0