# vtk DataFile Version 3.0
#This file was generated by the deal.II library on 2026/3/26 at 11:11:13
ASCII
DATASET UNSTRUCTURED_GRID

POINTS 672 double
0 0 0
0.214286 0 0
0 0.25 0
0.214286 0.25 0
0 0.25 0
0.214286 0.25 0
0 0.5 0
0.214286 0.5 0
0 0.5 0
0.214286 0.5 0
0 0.75 0
0.214286 0.75 0
0 0.75 0
0.214286 0.75 0
0 1 0
0.214286 1 0
0.214286 0 0
0.428571 0 0
0.214286 0.25 0
0.428571 0.25 0
0.214286 0.25 0
0.428571 0.25 0
0.214286 0.5 0
0.428571 0.5 0
0.214286 0.5 0
0.428571 0.5 0
0.214286 0.75 0
0.428571 0.75 0
0.214286 0.75 0
0.428571 0.75 0
0.214286 1 0
0.428571 1 0
0.428571 0 0
0.642857 0 0
0.428571 0.25 0
0.642857 0.25 0
0.428571 0.25 0
0.642857 0.25 0
0.428571 0.5 0
0.642857 0.5 0
0.428571 0.5 0
0.642857 0.5 0
0.428571 0.75 0
0.642857 0.75 0
0.428571 0.75 0
0.642857 0.75 0
0.428571 1 0
0.642857 1 0
0.642857 0 0
0.857143 0 0
0.642857 0.25 0
0.857143 0.25 0
0.642857 0.25 0
0.857143 0.25 0
0.642857 0.5 0
0.857143 0.5 0
0.642857 0.5 0
0.857143 0.5 0
0.642857 0.75 0
0.857143 0.75 0
0.642857 0.75 0
0.857143 0.75 0
0.642857 1 0
0.857143 1 0
0.857143 0 0
1.07143 0 0
0.857143 0.25 0
1.07143 0.25 0
0.857143 0.25 0
1.07143 0.25 0
0.857143 0.5 0
1.07143 0.5 0
0.857143 0.5 0
1.07143 0.5 0
0.857143 0.75 0
1.07143 0.75 0
0.857143 0.75 0
1.07143 0.75 0
0.857143 1 0
1.07143 1 0
1.07143 0 0
1.28571 0 0
1.07143 0.25 0
1.28571 0.25 0
1.07143 0.25 0
1.28571 0.25 0
1.07143 0.5 0
1.28571 0.5 0
1.07143 0.5 0
1.28571 0.5 0
1.07143 0.75 0
1.28571 0.75 0
1.07143 0.75 0
1.28571 0.75 0
1.07143 1 0
1.28571 1 0
1.28571 0 0
1.5 0 0
1.28571 0.25 0
1.5 0.25 0
1.28571 0.25 0
1.5 0.25 0
1.28571 0.5 0
1.5 0.5 0
1.28571 0.5 0
1.5 0.5 0
1.28571 0.75 0
1.5 0.75 0
1.28571 0.75 0
1.5 0.75 0
1.28571 1 0
1.5 1 0
1.5 0 0
1.71429 0 0
1.5 0.25 0
1.71429 0.25 0
1.5 0.25 0
1.71429 0.25 0
1.5 0.5 0
1.71429 0.5 0
1.5 0.5 0
1.71429 0.5 0
1.5 0.75 0
1.71429 0.75 0
1.5 0.75 0
1.71429 0.75 0
1.5 1 0
1.71429 1 0
1.71429 0 0
1.92857 0 0
1.71429 0.25 0
1.92857 0.25 0
1.71429 0.25 0
1.92857 0.25 0
1.71429 0.5 0
1.92857 0.5 0
1.71429 0.5 0
1.92857 0.5 0
1.71429 0.75 0
1.92857 0.75 0
1.71429 0.75 0
1.92857 0.75 0
1.71429 1 0
1.92857 1 0
1.92857 0 0
2.14286 0 0
1.92857 0.25 0
2.14286 0.25 0
1.92857 0.25 0
2.14286 0.25 0
1.92857 0.5 0
2.14286 0.5 0
1.92857 0.5 0
2.14286 0.5 0
1.92857 0.75 0
2.14286 0.75 0
1.92857 0.75 0
2.14286 0.75 0
1.92857 1 0
2.14286 1 0
2.14286 0 0
2.35714 0 0
2.14286 0.25 0
2.35714 0.25 0
2.14286 0.25 0
2.35714 0.25 0
2.14286 0.5 0
2.35714 0.5 0
2.14286 0.5 0
2.35714 0.5 0
2.14286 0.75 0
2.35714 0.75 0
2.14286 0.75 0
2.35714 0.75 0
2.14286 1 0
2.35714 1 0
2.35714 0 0
2.57143 0 0
2.35714 0.25 0
2.57143 0.25 0
2.35714 0.25 0
2.57143 0.25 0
2.35714 0.5 0
2.57143 0.5 0
2.35714 0.5 0
2.57143 0.5 0
2.35714 0.75 0
2.57143 0.75 0
2.35714 0.75 0
2.57143 0.75 0
2.35714 1 0
2.57143 1 0
2.57143 0 0
2.78571 0 0
2.57143 0.25 0
2.78571 0.25 0
2.57143 0.25 0
2.78571 0.25 0
2.57143 0.5 0
2.78571 0.5 0
2.57143 0.5 0
2.78571 0.5 0
2.57143 0.75 0
2.78571 0.75 0
2.57143 0.75 0
2.78571 0.75 0
2.57143 1 0
2.78571 1 0
2.78571 0 0
3 0 0
2.78571 0.25 0
3 0.25 0
2.78571 0.25 0
3 0.25 0
2.78571 0.5 0
3 0.5 0
2.78571 0.5 0
3 0.5 0
2.78571 0.75 0
3 0.75 0
2.78571 0.75 0
3 0.75 0
2.78571 1 0
3 1 0
0 2 0
0 1.75 0
0.214286 2 0
0.214286 1.75 0
0.214286 2 0
0.214286 1.75 0
0.428571 2 0
0.428571 1.75 0
0.428571 2 0
0.428571 1.75 0
0.642857 2 0
0.642857 1.75 0
0.642857 2 0
0.642857 1.75 0
0.857143 2 0
0.857143 1.75 0
0.857143 2 0
0.857143 1.75 0
1.07143 2 0
1.07143 1.75 0
1.07143 2 0
1.07143 1.75 0
1.28571 2 0
1.28571 1.75 0
1.28571 2 0
1.28571 1.75 0
1.5 2 0
1.5 1.75 0
1.5 2 0
1.5 1.75 0
1.71429 2 0
1.71429 1.75 0
1.71429 2 0
1.71429 1.75 0
1.92857 2 0
1.92857 1.75 0
1.92857 2 0
1.92857 1.75 0
2.14286 2 0
2.14286 1.75 0
2.14286 2 0
2.14286 1.75 0
2.35714 2 0
2.35714 1.75 0
2.35714 2 0
2.35714 1.75 0
2.57143 2 0
2.57143 1.75 0
2.57143 2 0
2.57143 1.75 0
2.78571 2 0
2.78571 1.75 0
2.78571 2 0
2.78571 1.75 0
3 2 0
3 1.75 0
0 1.75 0
0 1.5 0
0.214286 1.75 0
0.214286 1.5 0
0.214286 1.75 0
0.214286 1.5 0
0.428571 1.75 0
0.428571 1.5 0
0.428571 1.75 0
0.428571 1.5 0
0.642857 1.75 0
0.642857 1.5 0
0.642857 1.75 0
0.642857 1.5 0
0.857143 1.75 0
0.857143 1.5 0
0.857143 1.75 0
0.857143 1.5 0
1.07143 1.75 0
1.07143 1.5 0
1.07143 1.75 0
1.07143 1.5 0
1.28571 1.75 0
1.28571 1.5 0
1.28571 1.75 0
1.28571 1.5 0
1.5 1.75 0
1.5 1.5 0
1.5 1.75 0
1.5 1.5 0
1.71429 1.75 0
1.71429 1.5 0
1.71429 1.75 0
1.71429 1.5 0
1.92857 1.75 0
1.92857 1.5 0
1.92857 1.75 0
1.92857 1.5 0
2.14286 1.75 0
2.14286 1.5 0
2.14286 1.75 0
2.14286 1.5 0
2.35714 1.75 0
2.35714 1.5 0
2.35714 1.75 0
2.35714 1.5 0
2.57143 1.75 0
2.57143 1.5 0
2.57143 1.75 0
2.57143 1.5 0
2.78571 1.75 0
2.78571 1.5 0
2.78571 1.75 0
2.78571 1.5 0
3 1.75 0
3 1.5 0
0 1.5 0
0 1.25 0
0.214286 1.5 0
0.214286 1.25 0
0.214286 1.5 0
0.214286 1.25 0
0.428571 1.5 0
0.428571 1.25 0
0.428571 1.5 0
0.428571 1.25 0
0.642857 1.5 0
0.642857 1.25 0
0.642857 1.5 0
0.642857 1.25 0
0.857143 1.5 0
0.857143 1.25 0
0.857143 1.5 0
0.857143 1.25 0
1.07143 1.5 0
1.07143 1.25 0
1.07143 1.5 0
1.07143 1.25 0
1.28571 1.5 0
1.28571 1.25 0
1.28571 1.5 0
1.28571 1.25 0
1.5 1.5 0
1.5 1.25 0
1.5 1.5 0
1.5 1.25 0
1.71429 1.5 0
1.71429 1.25 0
1.71429 1.5 0
1.71429 1.25 0
1.92857 1.5 0
1.92857 1.25 0
1.92857 1.5 0
1.92857 1.25 0
2.14286 1.5 0
2.14286 1.25 0
2.14286 1.5 0
2.14286 1.25 0
2.35714 1.5 0
2.35714 1.25 0
2.35714 1.5 0
2.35714 1.25 0
2.57143 1.5 0
2.57143 1.25 0
2.57143 1.5 0
2.57143 1.25 0
2.78571 1.5 0
2.78571 1.25 0
2.78571 1.5 0
2.78571 1.25 0
3 1.5 0
3 1.25 0
0 1.25 0
0 1 0
0.214286 1.25 0
0.214286 1 0
0.214286 1.25 0
0.214286 1 0
0.428571 1.25 0
0.428571 1 0
0.428571 1.25 0
0.428571 1 0
0.642857 1.25 0
0.642857 1 0
0.642857 1.25 0
0.642857 1 0
0.857143 1.25 0
0.857143 1 0
0.857143 1.25 0
0.857143 1 0
1.07143 1.25 0
1.07143 1 0
1.07143 1.25 0
1.07143 1 0
1.28571 1.25 0
1.28571 1 0
1.28571 1.25 0
1.28571 1 0
1.5 1.25 0
1.5 1 0
1.5 1.25 0
1.5 1 0
1.71429 1.25 0
1.71429 1 0
1.71429 1.25 0
1.71429 1 0
1.92857 1.25 0
1.92857 1 0
1.92857 1.25 0
1.92857 1 0
2.14286 1.25 0
2.14286 1 0
2.14286 1.25 0
2.14286 1 0
2.35714 1.25 0
2.35714 1 0
2.35714 1.25 0
2.35714 1 0
2.57143 1.25 0
2.57143 1 0
2.57143 1.25 0
2.57143 1 0
2.78571 1.25 0
2.78571 1 0
2.78571 1.25 0
2.78571 1 0
3 1.25 0
3 1 0
0 3 0
0 2.75 0
0.214286 3 0
0.214286 2.75 0
0.214286 3 0
0.214286 2.75 0
0.428571 3 0
0.428571 2.75 0
0.428571 3 0
0.428571 2.75 0
0.642857 3 0
0.642857 2.75 0
0.642857 3 0
0.642857 2.75 0
0.857143 3 0
0.857143 2.75 0
0.857143 3 0
0.857143 2.75 0
1.07143 3 0
1.07143 2.75 0
1.07143 3 0
1.07143 2.75 0
1.28571 3 0
1.28571 2.75 0
1.28571 3 0
1.28571 2.75 0
1.5 3 0
1.5 2.75 0
1.5 3 0
1.5 2.75 0
1.71429 3 0
1.71429 2.75 0
1.71429 3 0
1.71429 2.75 0
1.92857 3 0
1.92857 2.75 0
1.92857 3 0
1.92857 2.75 0
2.14286 3 0
2.14286 2.75 0
2.14286 3 0
2.14286 2.75 0
2.35714 3 0
2.35714 2.75 0
2.35714 3 0
2.35714 2.75 0
2.57143 3 0
2.57143 2.75 0
2.57143 3 0
2.57143 2.75 0
2.78571 3 0
2.78571 2.75 0
2.78571 3 0
2.78571 2.75 0
3 3 0
3 2.75 0
0 2.75 0
0 2.5 0
0.214286 2.75 0
0.214286 2.5 0
0.214286 2.75 0
0.214286 2.5 0
0.428571 2.75 0
0.428571 2.5 0
0.428571 2.75 0
0.428571 2.5 0
0.642857 2.75 0
0.642857 2.5 0
0.642857 2.75 0
0.642857 2.5 0
0.857143 2.75 0
0.857143 2.5 0
0.857143 2.75 0
0.857143 2.5 0
1.07143 2.75 0
1.07143 2.5 0
1.07143 2.75 0
1.07143 2.5 0
1.28571 2.75 0
1.28571 2.5 0
1.28571 2.75 0
1.28571 2.5 0
1.5 2.75 0
1.5 2.5 0
1.5 2.75 0
1.5 2.5 0
1.71429 2.75 0
1.71429 2.5 0
1.71429 2.75 0
1.71429 2.5 0
1.92857 2.75 0
1.92857 2.5 0
1.92857 2.75 0
1.92857 2.5 0
2.14286 2.75 0
2.14286 2.5 0
2.14286 2.75 0
2.14286 2.5 0
2.35714 2.75 0
2.35714 2.5 0
2.35714 2.75 0
2.35714 2.5 0
2.57143 2.75 0
2.57143 2.5 0
2.57143 2.75 0
2.57143 2.5 0
2.78571 2.75 0
2.78571 2.5 0
2.78571 2.75 0
2.78571 2.5 0
3 2.75 0
3 2.5 0
0 2.5 0
0 2.25 0
0.214286 2.5 0
0.214286 2.25 0
0.214286 2.5 0
0.214286 2.25 0
0.428571 2.5 0
0.428571 2.25 0
0.428571 2.5 0
0.428571 2.25 0
0.642857 2.5 0
0.642857 2.25 0
0.642857 2.5 0
0.642857 2.25 0
0.857143 2.5 0
0.857143 2.25 0
0.857143 2.5 0
0.857143 2.25 0
1.07143 2.5 0
1.07143 2.25 0
1.07143 2.5 0
1.07143 2.25 0
1.28571 2.5 0
1.28571 2.25 0
1.28571 2.5 0
1.28571 2.25 0
1.5 2.5 0
1.5 2.25 0
1.5 2.5 0
1.5 2.25 0
1.71429 2.5 0
1.71429 2.25 0
1.71429 2.5 0
1.71429 2.25 0
1.92857 2.5 0
1.92857 2.25 0
1.92857 2.5 0
1.92857 2.25 0
2.14286 2.5 0
2.14286 2.25 0
2.14286 2.5 0
2.14286 2.25 0
2.35714 2.5 0
2.35714 2.25 0
2.35714 2.5 0
2.35714 2.25 0
2.57143 2.5 0
2.57143 2.25 0
2.57143 2.5 0
2.57143 2.25 0
2.78571 2.5 0
2.78571 2.25 0
2.78571 2.5 0
2.78571 2.25 0
3 2.5 0
3 2.25 0
0 2.25 0
0 2 0
0.214286 2.25 0
0.214286 2 0
0.214286 2.25 0
0.214286 2 0
0.428571 2.25 0
0.428571 2 0
0.428571 2.25 0
0.428571 2 0
0.642857 2.25 0
0.642857 2 0
0.642857 2.25 0
0.642857 2 0
0.857143 2.25 0
0.857143 2 0
0.857143 2.25 0
0.857143 2 0
1.07143 2.25 0
1.07143 2 0
1.07143 2.25 0
1.07143 2 0
1.28571 2.25 0
1.28571 2 0
1.28571 2.25 0
1.28571 2 0
1.5 2.25 0
1.5 2 0
1.5 2.25 0
1.5 2 0
1.71429 2.25 0
1.71429 2 0
1.71429 2.25 0
1.71429 2 0
1.92857 2.25 0
1.92857 2 0
1.92857 2.25 0
1.92857 2 0
2.14286 2.25 0
2.14286 2 0
2.14286 2.25 0
2.14286 2 0
2.35714 2.25 0
2.35714 2 0
2.35714 2.25 0
2.35714 2 0
2.57143 2.25 0
2.57143 2 0
2.57143 2.25 0
2.57143 2 0
2.78571 2.25 0
2.78571 2 0
2.78571 2.25 0
2.78571 2 0
3 2.25 0
3 2 0

CELLS 168 840
4	0	1	3	2
4	4	5	7	6
4	8	9	11	10
4	12	13	15	14
4	16	17	19	18
4	20	21	23	22
4	24	25	27	26
4	28	29	31	30
4	32	33	35	34
4	36	37	39	38
4	40	41	43	42
4	44	45	47	46
4	48	49	51	50
4	52	53	55	54
4	56	57	59	58
4	60	61	63	62
4	64	65	67	66
4	68	69	71	70
4	72	73	75	74
4	76	77	79	78
4	80	81	83	82
4	84	85	87	86
4	88	89	91	90
4	92	93	95	94
4	96	97	99	98
4	100	101	103	102
4	104	105	107	106
4	108	109	111	110
4	112	113	115	114
4	116	117	119	118
4	120	121	123	122
4	124	125	127	126
4	128	129	131	130
4	132	133	135	134
4	136	137	139	138
4	140	141	143	142
4	144	145	147	146
4	148	149	151	150
4	152	153	155	154
4	156	157	159	158
4	160	161	163	162
4	164	165	167	166
4	168	169	171	170
4	172	173	175	174
4	176	177	179	178
4	180	181	183	182
4	184	185	187	186
4	188	189	191	190
4	192	193	195	194
4	196	197	199	198
4	200	201	203	202
4	204	205	207	206
4	208	209	211	210
4	212	213	215	214
4	216	217	219	218
4	220	221	223	222
4	224	225	227	226
4	228	229	231	230
4	232	233	235	234
4	236	237	239	238
4	240	241	243	242
4	244	245	247	246
4	248	249	251	250
4	252	253	255	254
4	256	257	259	258
4	260	261	263	262
4	264	265	267	266
4	268	269	271	270
4	272	273	275	274
4	276	277	279	278
4	280	281	283	282
4	284	285	287	286
4	288	289	291	290
4	292	293	295	294
4	296	297	299	298
4	300	301	303	302
4	304	305	307	306
4	308	309	311	310
4	312	313	315	314
4	316	317	319	318
4	320	321	323	322
4	324	325	327	326
4	328	329	331	330
4	332	333	335	334
4	336	337	339	338
4	340	341	343	342
4	344	345	347	346
4	348	349	351	350
4	352	353	355	354
4	356	357	359	358
4	360	361	363	362
4	364	365	367	366
4	368	369	371	370
4	372	373	375	374
4	376	377	379	378
4	380	381	383	382
4	384	385	387	386
4	388	389	391	390
4	392	393	395	394
4	396	397	399	398
4	400	401	403	402
4	404	405	407	406
4	408	409	411	410
4	412	413	415	414
4	416	417	419	418
4	420	421	423	422
4	424	425	427	426
4	428	429	431	430
4	432	433	435	434
4	436	437	439	438
4	440	441	443	442
4	444	445	447	446
4	448	449	451	450
4	452	453	455	454
4	456	457	459	458
4	460	461	463	462
4	464	465	467	466
4	468	469	471	470
4	472	473	475	474
4	476	477	479	478
4	480	481	483	482
4	484	485	487	486
4	488	489	491	490
4	492	493	495	494
4	496	497	499	498
4	500	501	503	502
4	504	505	507	506
4	508	509	511	510
4	512	513	515	514
4	516	517	519	518
4	520	521	523	522
4	524	525	527	526
4	528	529	531	530
4	532	533	535	534
4	536	537	539	538
4	540	541	543	542
4	544	545	547	546
4	548	549	551	550
4	552	553	555	554
4	556	557	559	558
4	560	561	563	562
4	564	565	567	566
4	568	569	571	570
4	572	573	575	574
4	576	577	579	578
4	580	581	583	582
4	584	585	587	586
4	588	589	591	590
4	592	593	595	594
4	596	597	599	598
4	600	601	603	602
4	604	605	607	606
4	608	609	611	610
4	612	613	615	614
4	616	617	619	618
4	620	621	623	622
4	624	625	627	626
4	628	629	631	630
4	632	633	635	634
4	636	637	639	638
4	640	641	643	642
4	644	645	647	646
4	648	649	651	650
4	652	653	655	654
4	656	657	659	658
4	660	661	663	662
4	664	665	667	666
4	668	669	671	670

CELL_TYPES 168
 9 9 9 9 9 9 9 9 9 9 9 9 9 9 9 9 9 9 9 9 9 9 9 9 9 9 9 9 9 9 9 9 9 9 9 9 9 9 9 9 9 9 9 9 9 9 9 9 9 9 9 9 9 9 9 9 9 9 9 9 9 9 9 9 9 9 9 9 9 9 9 9 9 9 9 9 9 9 9 9 9 9 9 9 9 9 9 9 9 9 9 9 9 9 9 9 9 9 9 9 9 9 9 9 9 9 9 9 9 9 9 9 9 9 9 9 9 9 9 9 9 9 9 9 9 9 9 9 9 9 9 9 9 9 9 9 9 9 9 9 9 9 9 9 9 9 9 9 9 9 9 9 9 9 9 9 9 9 9 9 9 9 9 9 9 9 9 9
POINT_DATA 672
VECTORS velocity double
0 0 0
0 0 0
0 0 0
0.000286825 -0.000341595 0
0 0 0
0.000286825 -0.000341595 0
0 0 0
-7.57745e-05 -0.000563595 0
0 0 0
-7.57745e-05 -0.000563595 0
0 0 0
-0.000686134 0.000282903 0
0 0 0
-0.000686134 0.000282903 0
0 0 0
0.00104338 0.000285464 0
0 0 0
0 0 0
0.000286825 -0.000341595 0
0.000291802 0.000324541 0
0.000286825 -0.000341595 0
0.000291802 0.000324541 0
-7.57745e-05 -0.000563595 0
0.000430341 2.4141e-05 0
-7.57745e-05 -0.000563595 0
0.000430341 2.4141e-05 0
-0.000686134 0.000282903 0
-0.00470954 0.0032302 0
-0.000686134 0.000282903 0
-0.00470954 0.0032302 0
0.00104338 0.000285464 0
0.00553284 0.00293495 0
0 0 0
0 0 0
0.000291802 0.000324541 0
-0.000113531 0.000126991 0
0.000291802 0.000324541 0
-0.000113531 0.000126991 0
0.000430341 2.4141e-05 0
-0.000218354 0.0017033 0
0.000430341 2.4141e-05 0
-0.000218354 0.0017033 0
-0.00470954 0.0032302 0
-0.00570325 0.000334839 0
-0.00470954 0.0032302 0
-0.00570325 0.000334839 0
0.00553284 0.00293495 0
0.00832396 -0.00114822 0
0 0 0
0 0 0
-0.000113531 0.000126991 0
-0.000887775 0.000775702 0
-0.000113531 0.000126991 0
-0.000887775 0.000775702 0
-0.000218354 0.0017033 0
-0.000848733 0.00092488 0
-0.000218354 0.0017033 0
-0.000848733 0.00092488 0
-0.00570325 0.000334839 0
-0.00688349 0.00439194 0
-0.00570325 0.000334839 0
-0.00688349 0.00439194 0
0.00832396 -0.00114822 0
0.0115761 0.00358868 0
0 0 0
0 0 0
-0.000887775 0.000775702 0
-0.00178372 0.000237007 0
-0.000887775 0.000775702 0
-0.00178372 0.000237007 0
-0.000848733 0.00092488 0
-0.00176241 0.00222175 0
-0.000848733 0.00092488 0
-0.00176241 0.00222175 0
-0.00688349 0.00439194 0
-0.00641139 -0.000807808 0
-0.00688349 0.00439194 0
-0.00641139 -0.000807808 0
0.0115761 0.00358868 0
0.0133999 -0.00245796 0
0 0 0
0 0 0
-0.00178372 0.000237007 0
-0.00323439 0.00147209 0
-0.00178372 0.000237007 0
-0.00323439 0.00147209 0
-0.00176241 0.00222175 0
-0.00189353 0.00144844 0
-0.00176241 0.00222175 0
-0.00189353 0.00144844 0
-0.00641139 -0.000807808 0
-0.00700958 0.00538608 0
-0.00641139 -0.000807808 0
-0.00700958 0.00538608 0
0.0133999 -0.00245796 0
0.0160035 0.00463524 0
0 0 0
0 0 0
-0.00323439 0.00147209 0
-0.00572661 0.00138773 0
-0.00323439 0.00147209 0
-0.00572661 0.00138773 0
-0.00189353 0.00144844 0
-0.00146215 0.00379015 0
-0.00189353 0.00144844 0
-0.00146215 0.00379015 0
-0.00700958 0.00538608 0
-0.00569642 -0.00227906 0
-0.00700958 0.00538608 0
-0.00569642 -0.00227906 0
0.0160035 0.00463524 0
0.0169821 -0.00407272 0
0 0 0
0 0 0
-0.00572661 0.00138773 0
-0.00970529 0.00331999 0
-0.00572661 0.00138773 0
-0.00970529 0.00331999 0
-0.00146215 0.00379015 0
-0.00183347 0.00614514 0
-0.00146215 0.00379015 0
-0.00183347 0.00614514 0
-0.00569642 -0.00227906 0
-0.00264579 0.00927874 0
-0.00569642 -0.00227906 0
-0.00264579 0.00927874 0
0.0169821 -0.00407272 0
0.0182944 0.00565538 0
0 0 0
0 0 0
-0.00970529 0.00331999 0
-0.0164567 0.00455321 0
-0.00970529 0.00331999 0
-0.0164567 0.00455321 0
-0.00183347 0.00614514 0
-0.00867874 0.0173439 0
-0.00183347 0.00614514 0
-0.00867874 0.0173439 0
-0.00264579 0.00927874 0
0.00886176 0.00873176 0
-0.00264579 0.00927874 0
0.00886176 0.00873176 0
0.0182944 0.00565538 0
0.0201051 -0.00318026 0
0 0 0
0 0 0
-0.0164567 0.00455321 0
-0.0264846 0.00734629 0
-0.0164567 0.00455321 0
-0.0264846 0.00734629 0
-0.00867874 0.0173439 0
-0.0127325 0.0110663 0
-0.00867874 0.0173439 0
-0.0127325 0.0110663 0
0.00886176 0.00873176 0
0.0194495 0.0125898 0
0.00886176 0.00873176 0
0.0194495 0.0125898 0
0.0201051 -0.00318026 0
0.0234103 0.00778562 0
0 0 0
0 0 0
-0.0264846 0.00734629 0
-0.030752 -0.00223334 0
-0.0264846 0.00734629 0
-0.030752 -0.00223334 0
-0.0127325 0.0110663 0
-0.00931292 -0.00541088 0
-0.0127325 0.0110663 0
-0.00931292 -0.00541088 0
0.0194495 0.0125898 0
0.0186691 -0.0105479 0
0.0194495 0.0125898 0
0.0186691 -0.0105479 0
0.0234103 0.00778562 0
0.0248396 -0.00606628 0
0 0 0
0 0 0
-0.030752 -0.00223334 0
-0.0240752 -0.00528909 0
-0.030752 -0.00223334 0
-0.0240752 -0.00528909 0
-0.00931292 -0.00541088 0
-0.00856111 -0.0105213 0
-0.00931292 -0.00541088 0
-0.00856111 -0.0105213 0
0.0186691 -0.0105479 0
0.0105045 0.00382579 0
0.0186691 -0.0105479 0
0.0105045 0.00382579 0
0.0248396 -0.00606628 0
0.0256888 0.00731909 0
0 0 0
0 0 0
-0.0240752 -0.00528909 0
-0.00974118 -0.0117123 0
-0.0240752 -0.00528909 0
-0.00974118 -0.0117123 0
-0.00856111 -0.0105213 0
-0.00448531 -0.0282417 0
-0.00856111 -0.0105213 0
-0.00448531 -0.0282417 0
0.0105045 0.00382579 0
-0.00105549 -0.0344385 0
0.0105045 0.00382579 0
-0.00105549 -0.0344385 0
0.0256888 0.00731909 0
0.0187026 -0.0156241 0
0 0 0
0 0 0
-0.00974118 -0.0117123 0
0 0 0
-0.00974118 -0.0117123 0
0 0 0
-0.00448531 -0.0282417 0
0 0 0
-0.00448531 -0.0282417 0
0 0 0
-0.00105549 -0.0344385 0
0 0 0
-0.00105549 -0.0344385 0
0 0 0
0.0187026 -0.0156241 0
0 0 0
0 0 0
0.200983 0.000128846 0
0.00104338 -0.000285464 0
0.200567 0.000225016 0
0.00104338 -0.000285464 0
0.200567 0.000225016 0
0.00553284 -0.00293495 0
0.199484 0.000611845 0
0.00553284 -0.00293495 0
0.199484 0.000611845 0
0.00832396 0.00114822 0
0.198609 9.61374e-05 0
0.00832396 0.00114822 0
0.198609 9.61374e-05 0
0.0115761 -0.00358868 0
0.197683 0.000776445 0
0.0115761 -0.00358868 0
0.197683 0.000776445 0
0.0133999 0.00245796 0
0.196889 -9.2244e-05 0
0.0133999 0.00245796 0
0.196889 -9.2244e-05 0
0.0160035 -0.00463524 0
0.195992 0.00102083 0
0.0160035 -0.00463524 0
0.195992 0.00102083 0
0.0169821 0.00407272 0
0.195236 -0.000403455 0
0.0169821 0.00407272 0
0.195236 -0.000403455 0
0.0182944 -0.00565538 0
0.194477 0.00117386 0
0.0182944 -0.00565538 0
0.194477 0.00117386 0
0.0201051 0.00318026 0
0.193893 -0.00109559 0
0.0201051 0.00318026 0
0.193893 -0.00109559 0
0.0234103 -0.00778562 0
0.192957 0.00195106 0
0.0234103 -0.00778562 0
0.192957 0.00195106 0
0.0248396 0.00606628 0
0.19212 -0.00143175 0
0.0248396 0.00606628 0
0.19212 -0.00143175 0
0.0256888 -0.00731909 0
0.190672 0.00365741 0
0.0256888 -0.00731909 0
0.190672 0.00365741 0
0.0187026 0.0156241 0
0.188945 -0.00348643 0
0.0187026 0.0156241 0
0.188945 -0.00348643 0
0 0 0
0.1875 0 0
0.200983 0.000128846 0
0.236483 2.09331e-17 0
0.200567 0.000225016 0
0.23655 4.44277e-17 0
0.200567 0.000225016 0
0.23655 4.44277e-17 0
0.199484 0.000611845 0
0.236934 3.25082e-17 0
0.199484 0.000611845 0
0.236934 3.25082e-17 0
0.198609 9.61374e-05 0
0.23719 6.27218e-17 0
0.198609 9.61374e-05 0
0.23719 6.27218e-17 0
0.197683 0.000776445 0
0.237484 -3.63861e-18 0
0.197683 0.000776445 0
0.237484 -3.63861e-18 0
0.196889 -9.2244e-05 0
0.237718 5.46296e-18 0
0.196889 -9.2244e-05 0
0.237718 5.46296e-18 0
0.195992 0.00102083 0
0.238038 3.07578e-17 0
0.195992 0.00102083 0
0.238038 3.07578e-17 0
0.195236 -0.000403455 0
0.238327 -8.49671e-17 0
0.195236 -0.000403455 0
0.238327 -8.49671e-17 0
0.194477 0.00117386 0
0.238784 -2.89857e-17 0
0.194477 0.00117386 0
0.238784 -2.89857e-17 0
0.193893 -0.00109559 0
0.239359 -4.70463e-17 0
0.193893 -0.00109559 0
0.239359 -4.70463e-17 0
0.192957 0.00195106 0
0.240226 -1.13154e-17 0
0.192957 0.00195106 0
0.240226 -1.13154e-17 0
0.19212 -0.00143175 0
0.240766 -9.05071e-17 0
0.19212 -0.00143175 0
0.240766 -9.05071e-17 0
0.190672 0.00365741 0
0.241467 -4.29071e-17 0
0.190672 0.00365741 0
0.241467 -4.29071e-17 0
0.188945 -0.00348643 0
0.242883 6.95458e-18 0
0.188945 -0.00348643 0
0.242883 6.95458e-18 0
0.1875 0 0
0.25 0 0
0.236483 2.09331e-17 0
0.200983 -0.000128846 0
0.23655 4.44277e-17 0
0.200567 -0.000225016 0
0.23655 4.44277e-17 0
0.200567 -0.000225016 0
0.236934 3.25082e-17 0
0.199484 -0.000611845 0
0.236934 3.25082e-17 0
0.199484 -0.000611845 0
0.23719 6.27218e-17 0
0.198609 -9.61374e-05 0
0.23719 6.27218e-17 0
0.198609 -9.61374e-05 0
0.237484 -3.63861e-18 0
0.197683 -0.000776445 0
0.237484 -3.63861e-18 0
0.197683 -0.000776445 0
0.237718 5.46296e-18 0
0.196889 9.2244e-05 0
0.237718 5.46296e-18 0
0.196889 9.2244e-05 0
0.238038 3.07578e-17 0
0.195992 -0.00102083 0
0.238038 3.07578e-17 0
0.195992 -0.00102083 0
0.238327 -8.49671e-17 0
0.195236 0.000403455 0
0.238327 -8.49671e-17 0
0.195236 0.000403455 0
0.238784 -2.89857e-17 0
0.194477 -0.00117386 0
0.238784 -2.89857e-17 0
0.194477 -0.00117386 0
0.239359 -4.70463e-17 0
0.193893 0.00109559 0
0.239359 -4.70463e-17 0
0.193893 0.00109559 0
0.240226 -1.13154e-17 0
0.192957 -0.00195106 0
0.240226 -1.13154e-17 0
0.192957 -0.00195106 0
0.240766 -9.05071e-17 0
0.19212 0.00143175 0
0.240766 -9.05071e-17 0
0.19212 0.00143175 0
0.241467 -4.29071e-17 0
0.190672 -0.00365741 0
0.241467 -4.29071e-17 0
0.190672 -0.00365741 0
0.242883 6.95458e-18 0
0.188945 0.00348643 0
0.242883 6.95458e-18 0
0.188945 0.00348643 0
0.25 0 0
0.1875 0 0
0.200983 -0.000128846 0
0 0 0
0.200567 -0.000225016 0
0.00104338 0.000285464 0
0.200567 -0.000225016 0
0.00104338 0.000285464 0
0.199484 -0.000611845 0
0.00553284 0.00293495 0
0.199484 -0.000611845 0
0.00553284 0.00293495 0
0.198609 -9.61374e-05 0
0.00832396 -0.00114822 0
0.198609 -9.61374e-05 0
0.00832396 -0.00114822 0
0.197683 -0.000776445 0
0.0115761 0.00358868 0
0.197683 -0.000776445 0
0.0115761 0.00358868 0
0.196889 9.2244e-05 0
0.0133999 -0.00245796 0
0.196889 9.2244e-05 0
0.0133999 -0.00245796 0
0.195992 -0.00102083 0
0.0160035 0.00463524 0
0.195992 -0.00102083 0
0.0160035 0.00463524 0
0.195236 0.000403455 0
0.0169821 -0.00407272 0
0.195236 0.000403455 0
0.0169821 -0.00407272 0
0.194477 -0.00117386 0
0.0182944 0.00565538 0
0.194477 -0.00117386 0
0.0182944 0.00565538 0
0.193893 0.00109559 0
0.0201051 -0.00318026 0
0.193893 0.00109559 0
0.0201051 -0.00318026 0
0.192957 -0.00195106 0
0.0234103 0.00778562 0
0.192957 -0.00195106 0
0.0234103 0.00778562 0
0.19212 0.00143175 0
0.0248396 -0.00606628 0
0.19212 0.00143175 0
0.0248396 -0.00606628 0
0.190672 -0.00365741 0
0.0256888 0.00731909 0
0.190672 -0.00365741 0
0.0256888 0.00731909 0
0.188945 0.00348643 0
0.0187026 -0.0156241 0
0.188945 0.00348643 0
0.0187026 -0.0156241 0
0.1875 0 0
0 0 0
0 0 0
0 0 0
0 0 0
0.000286825 0.000341595 0
0 0 0
0.000286825 0.000341595 0
0 0 0
0.000291802 -0.000324541 0
0 0 0
0.000291802 -0.000324541 0
0 0 0
-0.000113531 -0.000126991 0
0 0 0
-0.000113531 -0.000126991 0
0 0 0
-0.000887775 -0.000775702 0
0 0 0
-0.000887775 -0.000775702 0
0 0 0
-0.00178372 -0.000237007 0
0 0 0
-0.00178372 -0.000237007 0
0 0 0
-0.00323439 -0.00147209 0
0 0 0
-0.00323439 -0.00147209 0
0 0 0
-0.00572661 -0.00138773 0
0 0 0
-0.00572661 -0.00138773 0
0 0 0
-0.00970529 -0.00331999 0
0 0 0
-0.00970529 -0.00331999 0
0 0 0
-0.0164567 -0.00455321 0
0 0 0
-0.0164567 -0.00455321 0
0 0 0
-0.0264846 -0.00734629 0
0 0 0
-0.0264846 -0.00734629 0
0 0 0
-0.030752 0.00223334 0
0 0 0
-0.030752 0.00223334 0
0 0 0
-0.0240752 0.00528909 0
0 0 0
-0.0240752 0.00528909 0
0 0 0
-0.00974118 0.0117123 0
0 0 0
-0.00974118 0.0117123 0
0 0 0
0 0 0
0 0 0
0 0 0
0.000286825 0.000341595 0
-7.57745e-05 0.000563595 0
0.000286825 0.000341595 0
-7.57745e-05 0.000563595 0
0.000291802 -0.000324541 0
0.000430341 -2.4141e-05 0
0.000291802 -0.000324541 0
0.000430341 -2.4141e-05 0
-0.000113531 -0.000126991 0
-0.000218354 -0.0017033 0
-0.000113531 -0.000126991 0
-0.000218354 -0.0017033 0
-0.000887775 -0.000775702 0
-0.000848733 -0.00092488 0
-0.000887775 -0.000775702 0
-0.000848733 -0.00092488 0
-0.00178372 -0.000237007 0
-0.00176241 -0.00222175 0
-0.00178372 -0.000237007 0
-0.00176241 -0.00222175 0
-0.00323439 -0.00147209 0
-0.00189353 -0.00144844 0
-0.00323439 -0.00147209 0
-0.00189353 -0.00144844 0
-0.00572661 -0.00138773 0
-0.00146215 -0.00379015 0
-0.00572661 -0.00138773 0
-0.00146215 -0.00379015 0
-0.00970529 -0.00331999 0
-0.00183347 -0.00614514 0
-0.00970529 -0.00331999 0
-0.00183347 -0.00614514 0
-0.0164567 -0.00455321 0
-0.00867874 -0.0173439 0
-0.0164567 -0.00455321 0
-0.00867874 -0.0173439 0
-0.0264846 -0.00734629 0
-0.0127325 -0.0110663 0
-0.0264846 -0.00734629 0
-0.0127325 -0.0110663 0
-0.030752 0.00223334 0
-0.00931292 0.00541088 0
-0.030752 0.00223334 0
-0.00931292 0.00541088 0
-0.0240752 0.00528909 0
-0.00856111 0.0105213 0
-0.0240752 0.00528909 0
-0.00856111 0.0105213 0
-0.00974118 0.0117123 0
-0.00448531 0.0282417 0
-0.00974118 0.0117123 0
-0.00448531 0.0282417 0
0 0 0
0 0 0
0 0 0
0 0 0
-7.57745e-05 0.000563595 0
-0.000686134 -0.000282903 0
-7.57745e-05 0.000563595 0
-0.000686134 -0.000282903 0
0.000430341 -2.4141e-05 0
-0.00470954 -0.0032302 0
0.000430341 -2.4141e-05 0
-0.00470954 -0.0032302 0
-0.000218354 -0.0017033 0
-0.00570325 -0.000334839 0
-0.000218354 -0.0017033 0
-0.00570325 -0.000334839 0
-0.000848733 -0.00092488 0
-0.00688349 -0.00439194 0
-0.000848733 -0.00092488 0
-0.00688349 -0.00439194 0
-0.00176241 -0.00222175 0
-0.00641139 0.000807808 0
-0.00176241 -0.00222175 0
-0.00641139 0.000807808 0
-0.00189353 -0.00144844 0
-0.00700958 -0.00538608 0
-0.00189353 -0.00144844 0
-0.00700958 -0.00538608 0
-0.00146215 -0.00379015 0
-0.00569642 0.00227906 0
-0.00146215 -0.00379015 0
-0.00569642 0.00227906 0
-0.00183347 -0.00614514 0
-0.00264579 -0.00927874 0
-0.00183347 -0.00614514 0
-0.00264579 -0.00927874 0
-0.00867874 -0.0173439 0
0.00886176 -0.00873176 0
-0.00867874 -0.0173439 0
0.00886176 -0.00873176 0
-0.0127325 -0.0110663 0
0.0194495 -0.0125898 0
-0.0127325 -0.0110663 0
0.0194495 -0.0125898 0
-0.00931292 0.00541088 0
0.0186691 0.0105479 0
-0.00931292 0.00541088 0
0.0186691 0.0105479 0
-0.00856111 0.0105213 0
0.0105045 -0.00382579 0
-0.00856111 0.0105213 0
0.0105045 -0.00382579 0
-0.00448531 0.0282417 0
-0.00105549 0.0344385 0
-0.00448531 0.0282417 0
-0.00105549 0.0344385 0
0 0 0
0 0 0
0 0 0
0 0 0
-0.000686134 -0.000282903 0
0.00104338 -0.000285464 0
-0.000686134 -0.000282903 0
0.00104338 -0.000285464 0
-0.00470954 -0.0032302 0
0.00553284 -0.00293495 0
-0.00470954 -0.0032302 0
0.00553284 -0.00293495 0
-0.00570325 -0.000334839 0
0.00832396 0.00114822 0
-0.00570325 -0.000334839 0
0.00832396 0.00114822 0
-0.00688349 -0.00439194 0
0.0115761 -0.00358868 0
-0.00688349 -0.00439194 0
0.0115761 -0.00358868 0
-0.00641139 0.000807808 0
0.0133999 0.00245796 0
-0.00641139 0.000807808 0
0.0133999 0.00245796 0
-0.00700958 -0.00538608 0
0.0160035 -0.00463524 0
-0.00700958 -0.00538608 0
0.0160035 -0.00463524 0
-0.00569642 0.00227906 0
0.0169821 0.00407272 0
-0.00569642 0.00227906 0
0.0169821 0.00407272 0
-0.00264579 -0.00927874 0
0.0182944 -0.00565538 0
-0.00264579 -0.00927874 0
0.0182944 -0.00565538 0
0.00886176 -0.00873176 0
0.0201051 0.00318026 0
0.00886176 -0.00873176 0
0.0201051 0.00318026 0
0.0194495 -0.0125898 0
0.0234103 -0.00778562 0
0.0194495 -0.0125898 0
0.0234103 -0.00778562 0
0.0186691 0.0105479 0
0.0248396 0.00606628 0
0.0186691 0.0105479 0
0.0248396 0.00606628 0
0.0105045 -0.00382579 0
0.0256888 -0.00731909 0
0.0105045 -0.00382579 0
0.0256888 -0.00731909 0
-0.00105549 0.0344385 0
0.0187026 0.0156241 0
-0.00105549 0.0344385 0
0.0187026 0.0156241 0
0 0 0
0 0 0
SCALARS pressure double 1
LOOKUP_TABLE default