# vtk DataFile Version 3.0
#This file was generated by the deal.II library on 2026/3/26 at 11:14:04
ASCII
DATASET UNSTRUCTURED_GRID

POINTS 3648 double
0 0 0
0.214286 0 0
0 0.25 0
0.214286 0.25 0
0 0.25 0
0.214286 0.25 0
0 0.5 0
0.214286 0.5 0
0.214286 0 0
0.428571 0 0
0.214286 0.25 0
0.428571 0.25 0
0.214286 0.25 0
0.428571 0.25 0
0.214286 0.5 0
0.428571 0.5 0
0.428571 0 0
0.642857 0 0
0.428571 0.25 0
0.642857 0.25 0
0.428571 0.25 0
0.642857 0.25 0
0.428571 0.5 0
0.642857 0.5 0
0.428571 0.5 0
0.642857 0.5 0
0.428571 0.75 0
0.642857 0.75 0
0.642857 0 0
0.857143 0 0
0.642857 0.25 0
0.857143 0.25 0
0.642857 0.25 0
0.857143 0.25 0
0.642857 0.5 0
0.857143 0.5 0
0.642857 0.5 0
0.857143 0.5 0
0.642857 0.75 0
0.857143 0.75 0
0.857143 0 0
1.07143 0 0
0.857143 0.25 0
1.07143 0.25 0
0.857143 0.25 0
1.07143 0.25 0
0.857143 0.5 0
1.07143 0.5 0
0.857143 0.5 0
1.07143 0.5 0
0.857143 0.75 0
1.07143 0.75 0
1.07143 0 0
1.28571 0 0
1.07143 0.25 0
1.28571 0.25 0
1.07143 0.25 0
1.28571 0.25 0
1.07143 0.5 0
1.28571 0.5 0
1.07143 0.5 0
1.28571 0.5 0
1.07143 0.75 0
1.28571 0.75 0
1.28571 0 0
1.5 0 0
1.28571 0.25 0
1.5 0.25 0
1.28571 0.25 0
1.5 0.25 0
1.28571 0.5 0
1.5 0.5 0
1.5 0 0
1.71429 0 0
1.5 0.25 0
1.71429 0.25 0
1.5 0.25 0
1.71429 0.25 0
1.5 0.5 0
1.71429 0.5 0
1.71429 0 0
1.92857 0 0
1.71429 0.25 0
1.92857 0.25 0
1.71429 0.25 0
1.92857 0.25 0
1.71429 0.5 0
1.92857 0.5 0
1.92857 0 0
2.14286 0 0
1.92857 0.25 0
2.14286 0.25 0
1.92857 0.25 0
2.14286 0.25 0
1.92857 0.5 0
2.14286 0.5 0
0 3 0
0 2.75 0
0.214286 3 0
0.214286 2.75 0
0.214286 3 0
0.214286 2.75 0
0.428571 3 0
0.428571 2.75 0
0.428571 3 0
0.428571 2.75 0
0.642857 3 0
0.642857 2.75 0
0.642857 3 0
0.642857 2.75 0
0.857143 3 0
0.857143 2.75 0
0.857143 3 0
0.857143 2.75 0
1.07143 3 0
1.07143 2.75 0
1.07143 3 0
1.07143 2.75 0
1.28571 3 0
1.28571 2.75 0
1.28571 3 0
1.28571 2.75 0
1.5 3 0
1.5 2.75 0
1.5 3 0
1.5 2.75 0
1.71429 3 0
1.71429 2.75 0
1.71429 3 0
1.71429 2.75 0
1.92857 3 0
1.92857 2.75 0
1.92857 3 0
1.92857 2.75 0
2.14286 3 0
2.14286 2.75 0
0 2.75 0
0 2.5 0
0.214286 2.75 0
0.214286 2.5 0
0.214286 2.75 0
0.214286 2.5 0
0.428571 2.75 0
0.428571 2.5 0
0.428571 2.75 0
0.428571 2.5 0
0.642857 2.75 0
0.642857 2.5 0
0.642857 2.75 0
0.642857 2.5 0
0.857143 2.75 0
0.857143 2.5 0
0.857143 2.75 0
0.857143 2.5 0
1.07143 2.75 0
1.07143 2.5 0
1.07143 2.75 0
1.07143 2.5 0
1.28571 2.75 0
1.28571 2.5 0
1.28571 2.75 0
1.28571 2.5 0
1.5 2.75 0
1.5 2.5 0
1.5 2.75 0
1.5 2.5 0
1.71429 2.75 0
1.71429 2.5 0
1.71429 2.75 0
1.71429 2.5 0
1.92857 2.75 0
1.92857 2.5 0
1.92857 2.75 0
1.92857 2.5 0
2.14286 2.75 0
2.14286 2.5 0
0.428571 2.5 0
0.428571 2.25 0
0.642857 2.5 0
0.642857 2.25 0
0.642857 2.5 0
0.642857 2.25 0
0.857143 2.5 0
0.857143 2.25 0
0.857143 2.5 0
0.857143 2.25 0
1.07143 2.5 0
1.07143 2.25 0
1.07143 2.5 0
1.07143 2.25 0
1.28571 2.5 0
1.28571 2.25 0
0.214286 0.75 0
0.321429 0.75 0
0.214286 0.875 0
0.321429 0.875 0
0.321429 0.75 0
0.428571 0.75 0
0.321429 0.875 0
0.428571 0.875 0
0.214286 0.875 0
0.321429 0.875 0
0.214286 1 0
0.321429 1 0
0.321429 0.875 0
0.428571 0.875 0
0.321429 1 0
0.428571 1 0
0.428571 0.75 0
0.535714 0.75 0
0.428571 0.875 0
0.535714 0.875 0
0.535714 0.75 0
0.642857 0.75 0
0.535714 0.875 0
0.642857 0.875 0
0.428571 0.875 0
0.535714 0.875 0
0.428571 1 0
0.535714 1 0
0.535714 0.875 0
0.642857 0.875 0
0.535714 1 0
0.642857 1 0
0.642857 0.75 0
0.75 0.75 0
0.642857 0.875 0
0.75 0.875 0
0.75 0.75 0
0.857143 0.75 0
0.75 0.875 0
0.857143 0.875 0
0.642857 0.875 0
0.75 0.875 0
0.642857 1 0
0.75 1 0
0.75 0.875 0
0.857143 0.875 0
0.75 1 0
0.857143 1 0
0.857143 0.75 0
0.964286 0.75 0
0.857143 0.875 0
0.964286 0.875 0
0.964286 0.75 0
1.07143 0.75 0
0.964286 0.875 0
1.07143 0.875 0
0.857143 0.875 0
0.964286 0.875 0
0.857143 1 0
0.964286 1 0
0.964286 0.875 0
1.07143 0.875 0
0.964286 1 0
1.07143 1 0
1.07143 0.75 0
1.17857 0.75 0
1.07143 0.875 0
1.17857 0.875 0
1.17857 0.75 0
1.28571 0.75 0
1.17857 0.875 0
1.28571 0.875 0
1.07143 0.875 0
1.17857 0.875 0
1.07143 1 0
1.17857 1 0
1.17857 0.875 0
1.28571 0.875 0
1.17857 1 0
1.28571 1 0
0.214286 2 0
0.214286 1.875 0
0.321429 2 0
0.321429 1.875 0
0.214286 1.875 0
0.214286 1.75 0
0.321429 1.875 0
0.321429 1.75 0
0.321429 2 0
0.321429 1.875 0
0.428571 2 0
0.428571 1.875 0
0.321429 1.875 0
0.321429 1.75 0
0.428571 1.875 0
0.428571 1.75 0
0.428571 2 0
0.428571 1.875 0
0.535714 2 0
0.535714 1.875 0
0.428571 1.875 0
0.428571 1.75 0
0.535714 1.875 0
0.535714 1.75 0
0.535714 2 0
0.535714 1.875 0
0.642857 2 0
0.642857 1.875 0
0.535714 1.875 0
0.535714 1.75 0
0.642857 1.875 0
0.642857 1.75 0
0.642857 2 0
0.642857 1.875 0
0.75 2 0
0.75 1.875 0
0.642857 1.875 0
0.642857 1.75 0
0.75 1.875 0
0.75 1.75 0
0.75 2 0
0.75 1.875 0
0.857143 2 0
0.857143 1.875 0
0.75 1.875 0
0.75 1.75 0
0.857143 1.875 0
0.857143 1.75 0
0.857143 2 0
0.857143 1.875 0
0.964286 2 0
0.964286 1.875 0
0.857143 1.875 0
0.857143 1.75 0
0.964286 1.875 0
0.964286 1.75 0
0.964286 2 0
0.964286 1.875 0
1.07143 2 0
1.07143 1.875 0
0.964286 1.875 0
0.964286 1.75 0
1.07143 1.875 0
1.07143 1.75 0
1.07143 2 0
1.07143 1.875 0
1.17857 2 0
1.17857 1.875 0
1.07143 1.875 0
1.07143 1.75 0
1.17857 1.875 0
1.17857 1.75 0
1.17857 2 0
1.17857 1.875 0
1.28571 2 0
1.28571 1.875 0
1.17857 1.875 0
1.17857 1.75 0
1.28571 1.875 0
1.28571 1.75 0
0.214286 1.25 0
0.214286 1.125 0
0.321429 1.25 0
0.321429 1.125 0
0.214286 1.125 0
0.214286 1 0
0.321429 1.125 0
0.321429 1 0
0.321429 1.25 0
0.321429 1.125 0
0.428571 1.25 0
0.428571 1.125 0
0.321429 1.125 0
0.321429 1 0
0.428571 1.125 0
0.428571 1 0
0.428571 1.25 0
0.428571 1.125 0
0.535714 1.25 0
0.535714 1.125 0
0.428571 1.125 0
0.428571 1 0
0.535714 1.125 0
0.535714 1 0
0.535714 1.25 0
0.535714 1.125 0
0.642857 1.25 0
0.642857 1.125 0
0.535714 1.125 0
0.535714 1 0
0.642857 1.125 0
0.642857 1 0
0.642857 1.25 0
0.642857 1.125 0
0.75 1.25 0
0.75 1.125 0
0.642857 1.125 0
0.642857 1 0
0.75 1.125 0
0.75 1 0
0.75 1.25 0
0.75 1.125 0
0.857143 1.25 0
0.857143 1.125 0
0.75 1.125 0
0.75 1 0
0.857143 1.125 0
0.857143 1 0
0.857143 1.25 0
0.857143 1.125 0
0.964286 1.25 0
0.964286 1.125 0
0.857143 1.125 0
0.857143 1 0
0.964286 1.125 0
0.964286 1 0
0.964286 1.25 0
0.964286 1.125 0
1.07143 1.25 0
1.07143 1.125 0
0.964286 1.125 0
0.964286 1 0
1.07143 1.125 0
1.07143 1 0
1.07143 1.25 0
1.07143 1.125 0
1.17857 1.25 0
1.17857 1.125 0
1.07143 1.125 0
1.07143 1 0
1.17857 1.125 0
1.17857 1 0
1.17857 1.25 0
1.17857 1.125 0
1.28571 1.25 0
1.28571 1.125 0
1.17857 1.125 0
1.17857 1 0
1.28571 1.125 0
1.28571 1 0
0.214286 2.25 0
0.214286 2.125 0
0.321429 2.25 0
0.321429 2.125 0
0.214286 2.125 0
0.214286 2 0
0.321429 2.125 0
0.321429 2 0
0.321429 2.25 0
0.321429 2.125 0
0.428571 2.25 0
0.428571 2.125 0
0.321429 2.125 0
0.321429 2 0
0.428571 2.125 0
0.428571 2 0
0.428571 2.25 0
0.428571 2.125 0
0.535714 2.25 0
0.535714 2.125 0
0.428571 2.125 0
0.428571 2 0
0.535714 2.125 0
0.535714 2 0
0.535714 2.25 0
0.535714 2.125 0
0.642857 2.25 0
0.642857 2.125 0
0.535714 2.125 0
0.535714 2 0
0.642857 2.125 0
0.642857 2 0
0.642857 2.25 0
0.642857 2.125 0
0.75 2.25 0
0.75 2.125 0
0.642857 2.125 0
0.642857 2 0
0.75 2.125 0
0.75 2 0
0.75 2.25 0
0.75 2.125 0
0.857143 2.25 0
0.857143 2.125 0
0.75 2.125 0
0.75 2 0
0.857143 2.125 0
0.857143 2 0
0.857143 2.25 0
0.857143 2.125 0
0.964286 2.25 0
0.964286 2.125 0
0.857143 2.125 0
0.857143 2 0
0.964286 2.125 0
0.964286 2 0
0.964286 2.25 0
0.964286 2.125 0
1.07143 2.25 0
1.07143 2.125 0
0.964286 2.125 0
0.964286 2 0
1.07143 2.125 0
1.07143 2 0
1.07143 2.25 0
1.07143 2.125 0
1.17857 2.25 0
1.17857 2.125 0
1.07143 2.125 0
1.07143 2 0
1.17857 2.125 0
1.17857 2 0
1.17857 2.25 0
1.17857 2.125 0
1.28571 2.25 0
1.28571 2.125 0
1.17857 2.125 0
1.17857 2 0
1.28571 2.125 0
1.28571 2 0
0 0.5 0
0.107143 0.5 0
0 0.625 0
0.107143 0.625 0
0.107143 0.5 0
0.214286 0.5 0
0.107143 0.625 0
0.214286 0.625 0
0 0.625 0
0.107143 0.625 0
0 0.75 0
0.107143 0.75 0
0.107143 0.625 0
0.214286 0.625 0
0.107143 0.75 0
0.214286 0.75 0
0.214286 0.5 0
0.321429 0.5 0
0.214286 0.625 0
0.321429 0.625 0
0.321429 0.5 0
0.428571 0.5 0
0.321429 0.625 0
0.428571 0.625 0
0.214286 0.625 0
0.321429 0.625 0
0.214286 0.75 0
0.321429 0.75 0
0.321429 0.625 0
0.428571 0.625 0
0.321429 0.75 0
0.428571 0.75 0
1.28571 0.5 0
1.39286 0.5 0
1.28571 0.625 0
1.39286 0.625 0
1.39286 0.5 0
1.5 0.5 0
1.39286 0.625 0
1.5 0.625 0
1.28571 0.625 0
1.39286 0.625 0
1.28571 0.75 0
1.39286 0.75 0
1.39286 0.625 0
1.5 0.625 0
1.39286 0.75 0
1.5 0.75 0
1.28571 0.75 0
1.39286 0.75 0
1.28571 0.875 0
1.39286 0.875 0
1.39286 0.75 0
1.5 0.75 0
1.39286 0.875 0
1.5 0.875 0
1.28571 0.875 0
1.39286 0.875 0
1.28571 1 0
1.39286 1 0
1.39286 0.875 0
1.5 0.875 0
1.39286 1 0
1.5 1 0
1.5 0.5 0
1.60714 0.5 0
1.5 0.625 0
1.60714 0.625 0
1.60714 0.5 0
1.71429 0.5 0
1.60714 0.625 0
1.71429 0.625 0
1.5 0.625 0
1.60714 0.625 0
1.5 0.75 0
1.60714 0.75 0
1.60714 0.625 0
1.71429 0.625 0
1.60714 0.75 0
1.71429 0.75 0
1.71429 0.5 0
1.82143 0.5 0
1.71429 0.625 0
1.82143 0.625 0
1.82143 0.5 0
1.92857 0.5 0
1.82143 0.625 0
1.92857 0.625 0
1.71429 0.625 0
1.82143 0.625 0
1.71429 0.75 0
1.82143 0.75 0
1.82143 0.625 0
1.92857 0.625 0
1.82143 0.75 0
1.92857 0.75 0
1.92857 0.5 0
2.03571 0.5 0
1.92857 0.625 0
2.03571 0.625 0
2.03571 0.5 0
2.14286 0.5 0
2.03571 0.625 0
2.14286 0.625 0
1.92857 0.625 0
2.03571 0.625 0
1.92857 0.75 0
2.03571 0.75 0
2.03571 0.625 0
2.14286 0.625 0
2.03571 0.75 0
2.14286 0.75 0
2.14286 0 0
2.25 0 0
2.14286 0.125 0
2.25 0.125 0
2.25 0 0
2.35714 0 0
2.25 0.125 0
2.35714 0.125 0
2.14286 0.125 0
2.25 0.125 0
2.14286 0.25 0
2.25 0.25 0
2.25 0.125 0
2.35714 0.125 0
2.25 0.25 0
2.35714 0.25 0
2.14286 0.25 0
2.25 0.25 0
2.14286 0.375 0
2.25 0.375 0
2.25 0.25 0
2.35714 0.25 0
2.25 0.375 0
2.35714 0.375 0
2.14286 0.375 0
2.25 0.375 0
2.14286 0.5 0
2.25 0.5 0
2.25 0.375 0
2.35714 0.375 0
2.25 0.5 0
2.35714 0.5 0
2.14286 0.5 0
2.25 0.5 0
2.14286 0.625 0
2.25 0.625 0
2.25 0.5 0
2.35714 0.5 0
2.25 0.625 0
2.35714 0.625 0
2.14286 0.625 0
2.25 0.625 0
2.14286 0.75 0
2.25 0.75 0
2.25 0.625 0
2.35714 0.625 0
2.25 0.75 0
2.35714 0.75 0
2.35714 0 0
2.46429 0 0
[...]
POINT_DATA 3648
VECTORS velocity double
0 0 0
0 0 0
0 0 0
-0.0101829 0.0114653 0
0 0 0
-0.0101829 0.0114653 0
0 0 0
-0.00389143 0.0283164 0
0 0 0
0 0 0
-0.0101829 0.0114653 0
-0.0352693 0.017163 0
-0.0101829 0.0114653 0
-0.0352693 0.017163 0
-0.00389143 0.0283164 0
-0.00538212 0.0316608 0
0 0 0
0 0 0
-0.0352693 0.017163 0
-0.059213 0.0107825 0
-0.0352693 0.017163 0
-0.059213 0.0107825 0
-0.00538212 0.0316608 0
-0.00730008 0.026933 0
-0.00538212 0.0316608 0
-0.00730008 0.026933 0
0.0225949 0.0212518 0
0.0436923 0.014827 0
0 0 0
0 0 0
-0.059213 0.0107825 0
-0.0676153 -0.000896021 0
-0.059213 0.0107825 0
-0.0676153 -0.000896021 0
-0.00730008 0.026933 0
0.000580516 -0.0170845 0
-0.00730008 0.026933 0
0.000580516 -0.0170845 0
0.0436923 0.014827 0
0.0412595 -0.0114993 0
0 0 0
0 0 0
-0.0676153 -0.000896021 0
-0.0511259 -0.0186492 0
-0.0676153 -0.000896021 0
-0.0511259 -0.0186492 0
0.000580516 -0.0170845 0
0.000420275 -0.0207556 0
0.000580516 -0.0170845 0
0.000420275 -0.0207556 0
0.0412595 -0.0114993 0
0.0224729 -0.00439572 0
0 0 0
0 0 0
-0.0511259 -0.0186492 0
0.00598639 -0.0502775 0
-0.0511259 -0.0186492 0
0.00598639 -0.0502775 0
0.000420275 -0.0207556 0
-0.03966 -0.067362 0
0.000420275 -0.0207556 0
-0.03966 -0.067362 0
0.0224729 -0.00439572 0
0.0198174 -0.0343138 0
0 0 0
0 0 0
0.00598639 -0.0502775 0
0.065975 -0.019455 0
0.00598639 -0.0502775 0
0.065975 -0.019455 0
-0.03966 -0.067362 0
-0.0446466 -0.0644391 0
0 0 0
0 0 0
0.065975 -0.019455 0
0.0675958 0.0175908 0
0.065975 -0.019455 0
0.0675958 0.0175908 0
-0.0446466 -0.0644391 0
-0.042612 0.0524206 0
0 0 0
0 0 0
0.0675958 0.0175908 0
0.0358339 0.0200626 0
0.0675958 0.0175908 0
0.0358339 0.0200626 0
-0.042612 0.0524206 0
-0.0541538 0.0382894 0
0 0 0
0 0 0
0.0358339 0.0200626 0
-0.00737172 0.0282446 0
0.0358339 0.0200626 0
-0.00737172 0.0282446 0
-0.0541538 0.0382894 0
-0.0140319 0.0125435 0
0 0 0
0 0 0
0 0 0
-0.0101824 -0.0114649 0
0 0 0
-0.0101824 -0.0114649 0
0 0 0
-0.0352686 -0.0171632 0
0 0 0
-0.0352686 -0.0171632 0
0 0 0
-0.0592126 -0.0107826 0
0 0 0
-0.0592126 -0.0107826 0
0 0 0
-0.0676147 0.000896455 0
0 0 0
-0.0676147 0.000896455 0
0 0 0
-0.0511242 0.0186501 0
0 0 0
-0.0511242 0.0186501 0
0 0 0
0.00598844 0.0502769 0
0 0 0
0.00598844 0.0502769 0
0 0 0
0.0659709 0.0194484 0
0 0 0
0.0659709 0.0194484 0
0 0 0
0.0675903 -0.0175856 0
0 0 0
0.0675903 -0.0175856 0
0 0 0
0.0358334 -0.020062 0
0 0 0
0.0358334 -0.020062 0
0 0 0
-0.00737201 -0.0282449 0
0 0 0
0 0 0
-0.0101824 -0.0114649 0
-0.00389167 -0.0283157 0
-0.0101824 -0.0114649 0
-0.00389167 -0.0283157 0
-0.0352686 -0.0171632 0
-0.00538256 -0.0316612 0
-0.0352686 -0.0171632 0
-0.00538256 -0.0316612 0
-0.0592126 -0.0107826 0
-0.00730042 -0.0269332 0
-0.0592126 -0.0107826 0
-0.00730042 -0.0269332 0
-0.0676147 0.000896455 0
0.000579682 0.0170846 0
-0.0676147 0.000896455 0
0.000579682 0.0170846 0
-0.0511242 0.0186501 0
0.000418599 0.0207571 0
-0.0511242 0.0186501 0
0.000418599 0.0207571 0
0.00598844 0.0502769 0
-0.0396613 0.0673616 0
0.00598844 0.0502769 0
-0.0396613 0.0673616 0
0.0659709 0.0194484 0
-0.0446408 0.0644335 0
0.0659709 0.0194484 0
-0.0446408 0.0644335 0
0.0675903 -0.0175856 0
-0.0426063 -0.0524182 0
0.0675903 -0.0175856 0
-0.0426063 -0.0524182 0
0.0358334 -0.020062 0
-0.0541543 -0.0382875 0
0.0358334 -0.020062 0
-0.0541543 -0.0382875 0
-0.00737201 -0.0282449 0
-0.0140317 -0.0125438 0
-0.00538256 -0.0316612 0
0.0225947 -0.021252 0
-0.00730042 -0.0269332 0
0.0436923 -0.014827 0
-0.00730042 -0.0269332 0
0.0436923 -0.014827 0
0.000579682 0.0170846 0
0.0412596 0.0114988 0
0.000579682 0.0170846 0
0.0412596 0.0114988 0
0.000418599 0.0207571 0
0.0224727 0.00439651 0
0.000418599 0.0207571 0
0.0224727 0.00439651 0
-0.0396613 0.0673616 0
0.0198159 0.034313 0
0.00700723 0.0236116 0
0.0157057 0.0201634 0
0.00713175 0.0136279 0
0.0142021 0.0117757 0
0.0157057 0.0201634 0
0.0225949 0.0212518 0
0.0142021 0.0117757 0
0.0231086 0.0114421 0
0.00713175 0.0136279 0
0.0142021 0.0117757 0
0.0484165 -0.00261714 0
0.0688653 -0.00331157 0
0.0142021 0.0117757 0
0.0231086 0.0114421 0
0.0688653 -0.00331157 0
0.0864218 -0.0040009 0
0.0225949 0.0212518 0
0.0309021 0.0177559 0
0.0231086 0.0114421 0
0.031641 0.0083101 0
0.0309021 0.0177559 0
0.0436923 0.014827 0
0.031641 0.0083101 0
0.0364228 0.0042209 0
0.0231086 0.0114421 0
0.031641 0.0083101 0
0.0864218 -0.0040009 0
0.101798 -0.00417311 0
0.031641 0.0083101 0
0.0364228 0.0042209 0
0.101798 -0.00417311 0
0.115498 -0.00514904 0
0.0436923 0.014827 0
0.0506543 0.00244339 0
0.0364228 0.0042209 0
0.0391507 0.00238968 0
0.0506543 0.00244339 0
0.0412595 -0.0114993 0
0.0391507 0.00238968 0
0.0402977 -0.00108784 0
0.0364228 0.0042209 0
0.0391507 0.00238968 0
0.115498 -0.00514904 0
0.127648 -0.00605335 0
0.0391507 0.00238968 0
0.0402977 -0.00108784 0
0.127648 -0.00605335 0
0.13845 -0.00711749 0
0.0412595 -0.0114993 0
0.027723 -0.00856269 0
0.0402977 -0.00108784 0
0.040034 -0.00215481 0
0.027723 -0.00856269 0
0.0224729 -0.00439572 0
0.040034 -0.00215481 0
0.0401861 -0.00416713 0
0.0402977 -0.00108784 0
0.040034 -0.00215481 0
0.13845 -0.00711749 0
0.14817 -0.00796705 0
0.040034 -0.00215481 0
0.0401861 -0.00416713 0
0.14817 -0.00796705 0
0.156679 -0.00927585 0
0.0224729 -0.00439572 0
0.0212761 -0.0190882 0
0.0401861 -0.00416713 0
0.0352383 -0.0114113 0
0.0212761 -0.0190882 0
0.0198174 -0.0343138 0
0.0352383 -0.0114113 0
0.0172783 -0.0189326 0
0.0401861 -0.00416713 0
0.0352383 -0.0114113 0
0.156679 -0.00927585 0
0.163812 -0.00964632 0
0.0352383 -0.0114113 0
0.0172783 -0.0189326 0
0.163812 -0.00964632 0
0.170256 -0.00745605 0
0.0484162 0.0026171 0
0.246463 0.0121482 0
0.0688649 0.00331151 0
0.241358 0.0113608 0
0.246463 0.0121482 0
0.185669 0.00471684 0
0.241358 0.0113608 0
0.178357 0.00440751 0
0.0688649 0.00331151 0
0.241358 0.0113608 0
0.0864213 0.00400088 0
0.236603 0.0103677 0
0.241358 0.0113608 0
0.178357 0.00440751 0
0.236603 0.0103677 0
0.171681 0.00415478 0
0.0864213 0.00400088 0
0.236603 0.0103677 0
0.101797 0.00417306 0
0.232119 0.00981558 0
0.236603 0.0103677 0
0.171681 0.00415478 0
0.232119 0.00981558 0
0.1656 0.00393369 0
0.101797 0.00417306 0
0.232119 0.00981558 0
0.115498 0.00514898 0
0.227728 0.0095216 0
0.232119 0.00981558 0
0.1656 0.00393369 0
0.227728 0.0095216 0
0.159992 0.00403435 0
0.115498 0.00514898 0
0.227728 0.0095216 0
0.127647 0.00605329 0
0.223299 0.00965525 0
0.227728 0.0095216 0
0.159992 0.00403435 0
0.223299 0.00965525 0
0.154724 0.0040827 0
0.127647 0.00605329 0
0.223299 0.00965525 0
0.138449 0.00711746 0
0.218703 0.00963524 0
0.223299 0.00965525 0
0.154724 0.0040827 0
0.218703 0.00963524 0
0.149679 0.00426626 0
0.138449 0.00711746 0
0.218703 0.00963524 0
0.14817 0.00796703 0
0.213784 0.0099951 0
0.218703 0.00963524 0
0.149679 0.00426626 0
0.213784 0.0099951 0
0.144818 0.00426431 0
0.14817 0.00796703 0
0.213784 0.0099951 0
0.156678 0.00927582 0
0.20846 0.00995962 0
0.213784 0.0099951 0
0.144818 0.00426431 0
0.20846 0.00995962 0
0.140186 0.00435456 0
0.156678 0.00927582 0
0.20846 0.00995962 0
0.163812 0.00964627 0
0.202766 0.00966839 0
0.20846 0.00995962 0
0.140186 0.00435456 0
0.202766 0.00966839 0
0.135959 0.0038048 0
0.163812 0.00964627 0
0.202766 0.00966839 0
0.170256 0.0074561 0
0.197046 0.00741804 0
0.202766 0.00966839 0
0.135959 0.0038048 0
0.197046 0.00741804 0
0.132571 0.00275736 0
0.185667 -0.00471671 0
0.246463 -0.0121481 0
0.178355 -0.00440739 0
0.241358 -0.0113608 0
0.246463 -0.0121481 0
0.0484165 -0.00261714 0
0.241358 -0.0113608 0
0.0688653 -0.00331157 0
0.178355 -0.00440739 0
0.241358 -0.0113608 0
0.171679 -0.00415467 0
0.236603 -0.0103676 0
0.241358 -0.0113608 0
0.0688653 -0.00331157 0
0.236603 -0.0103676 0
0.0864218 -0.0040009 0
0.171679 -0.00415467 0
0.236603 -0.0103676 0
0.165598 -0.00393358 0
0.232119 -0.00981554 0
0.236603 -0.0103676 0
0.0864218 -0.0040009 0
0.232119 -0.00981554 0
0.101798 -0.00417311 0
0.165598 -0.00393358 0
0.232119 -0.00981554 0
0.15999 -0.00403426 0
0.227728 -0.00952156 0
0.232119 -0.00981554 0
0.101798 -0.00417311 0
0.227728 -0.00952156 0
0.115498 -0.00514904 0
0.15999 -0.00403426 0
0.227728 -0.00952156 0
0.154723 -0.00408261 0
0.223298 -0.00965521 0
0.227728 -0.00952156 0
0.115498 -0.00514904 0
0.223298 -0.00965521 0
0.127648 -0.00605335 0
0.154723 -0.00408261 0
0.223298 -0.00965521 0
0.149678 -0.00426618 0
0.218703 -0.00963519 0
0.223298 -0.00965521 0
0.127648 -0.00605335 0
0.218703 -0.00963519 0
0.13845 -0.00711749 0
0.149678 -0.00426618 0
0.218703 -0.00963519 0
0.144817 -0.00426422 0
0.213783 -0.00999504 0
0.218703 -0.00963519 0
0.13845 -0.00711749 0
0.213783 -0.00999504 0
0.14817 -0.00796705 0
0.144817 -0.00426422 0
0.213783 -0.00999504 0
0.140184 -0.00435449 0
0.208459 -0.00995954 0
0.213783 -0.00999504 0
0.14817 -0.00796705 0
0.208459 -0.00995954 0
0.156679 -0.00927585 0
0.140184 -0.00435449 0
0.208459 -0.00995954 0
0.135958 -0.0038047 0
0.202765 -0.00966832 0
0.208459 -0.00995954 0
0.156679 -0.00927585 0
0.202765 -0.00966832 0
0.163812 -0.00964632 0
0.135958 -0.0038047 0
0.202765 -0.00966832 0
0.13257 -0.00275727 0
0.197045 -0.00741791 0
0.202765 -0.00966832 0
0.163812 -0.00964632 0
0.197045 -0.00741791 0
0.170256 -0.00745605 0
0.0070072 -0.0236112 0
0.00713178 -0.0136279 0
0.0157054 -0.0201627 0
0.0142018 -0.0117753 0
0.00713178 -0.0136279 0
0.0484162 0.0026171 0
0.0142018 -0.0117753 0
0.0688649 0.00331151 0
0.0157054 -0.0201627 0
0.0142018 -0.0117753 0
0.0225947 -0.021252 0
0.0231081 -0.0114421 0
0.0142018 -0.0117753 0
0.0688649 0.00331151 0
0.0231081 -0.0114421 0
0.0864213 0.00400088 0
0.0225947 -0.021252 0
0.0231081 -0.0114421 0
0.030902 -0.017756 0
0.0316406 -0.00831014 0
0.0231081 -0.0114421 0
0.0864213 0.00400088 0
0.0316406 -0.00831014 0
0.101797 0.00417306 0
0.030902 -0.017756 0
0.0316406 -0.00831014 0
0.0436923 -0.014827 0
0.0364224 -0.00422088 0
0.0316406 -0.00831014 0
0.101797 0.00417306 0
0.0364224 -0.00422088 0
0.115498 0.00514898 0
0.0436923 -0.014827 0
0.0364224 -0.00422088 0
0.0506544 -0.00244363 0
0.0391503 -0.00238979 0
0.0364224 -0.00422088 0
0.115498 0.00514898 0
0.0391503 -0.00238979 0
0.127647 0.00605329 0
0.0506544 -0.00244363 0
0.0391503 -0.00238979 0
0.0412596 0.0114988 0
0.0402976 0.00108756 0
0.0391503 -0.00238979 0
0.127647 0.00605329 0
0.0402976 0.00108756 0
0.138449 0.00711746 0
0.0412596 0.0114988 0
0.0402976 0.00108756 0
0.027723 0.00856282 0
0.0400342 0.00215482 0
0.0402976 0.00108756 0
0.138449 0.00711746 0
0.0400342 0.00215482 0
0.14817 0.00796703 0
0.027723 0.00856282 0
0.0400342 0.00215482 0
0.0224727 0.00439651 0
0.040186 0.00416741 0
0.0400342 0.00215482 0
0.14817 0.00796703 0
0.040186 0.00416741 0
0.156678 0.00927582 0
0.0224727 0.00439651 0
0.040186 0.00416741 0
0.0212755 0.0190883 0
0.0352379 0.0114111 0
0.040186 0.00416741 0
0.156678 0.00927582 0
0.0352379 0.0114111 0
0.163812 0.00964627 0
0.0212755 0.0190883 0
0.0352379 0.0114111 0
0.0198159 0.034313 0
0.0172786 0.0189319 0
0.0352379 0.0114111 0
0.163812 0.00964627 0
0.0172786 0.0189319 0
0.170256 0.0074561 0
0 0 0
-0.000914747 0.0142148 0
0 0 0
-0.000154521 0.0154925 0
-0.000914747 0.0142148 0
-0.00389143 0.0283164 0
-0.000154521 0.0154925 0
0.000312534 0.0299321 0
0 0 0
-0.000154521 0.0154925 0
0 0 0
0.00108765 0.014462 0
-0.000154521 0.0154925 0
0.000312534 0.0299321 0
0.00108765 0.014462 0
0.00700723 0.0236116 0
-0.00389143 0.0283164 0
-0.00632306 0.0302486 0
0.000312534 0.0299321 0
0.00351964 0.0277451 0
-0.00632306 0.0302486 0
-0.00538212 0.0316608 0
0.00351964 0.0277451 0
0.00840383 0.0274416 0
0.000312534 0.0299321 0
0.00351964 0.0277451 0
0.00700723 0.0236116 0
0.0157057 0.0201634 0
0.00351964 0.0277451 0
0.00840383 0.0274416 0
0.0157057 0.0201634 0
0.0225949 0.0212518 0
-0.03966 -0.067362 0
-0.0538309 -0.0686366 0
-0.00956939 -0.0435281 0
-0.0414217 -0.0385298 0
-0.0538309 -0.0686366 0
-0.0446466 -0.0644391 0
-0.0414217 -0.0385298 0
-0.0858715 -0.0520896 0
-0.00956939 -0.0435281 0
-0.0414217 -0.0385298 0
0.0198174 -0.0343138 0
-0.00510959 0.0185355 0
-0.0414217 -0.0385298 0
-0.0858715 -0.0520896 0
-0.00510959 0.0185355 0
-0.0450638 -0.0114664 0
0.0198174 -0.0343138 0
-0.00510959 0.0185355 0
0.0172783 -0.0189326 0
0.0260542 0.022237 0
-0.00510959 0.0185355 0
-0.0450638 -0.0114664 0
0.0260542 0.022237 0
0.0501029 0.00313182 0
0.0172783 -0.0189326 0
0.0260542 0.022237 0
0.170256 -0.00745605 0
0.174432 -0.00461365 0
0.0260542 0.022237 0
0.0501029 0.00313182 0
0.174432 -0.00461365 0
0.17799 -0.00275313 0
-0.0446466 -0.0644391 0
-0.0347049 -0.00124772 0
-0.0858715 -0.0520896 0
-0.10054 -0.00668243 0
-0.0347049 -0.00124772 0
-0.042612 0.0524206 0
-0.10054 -0.00668243 0
-0.073156 0.034971 0
-0.0858715 -0.0520896 0
-0.10054 -0.00668243 0
-0.0450638 -0.0114664 0
-0.049233 -0.0245358 0
-0.10054 -0.00668243 0
-0.073156 0.034971 0
-0.049233 -0.0245358 0
-0.0447317 0.0151028 0
-0.042612 0.0524206 0
-0.0529129 0.042674 0
-0.073156 0.034971 0
-0.0449481 0.0392344 0
-0.0529129 0.042674 0
-0.0541538 0.0382894 0
-0.0449481 0.0392344 0
-0.0292494 0.0246967 0
-0.073156 0.034971 0
-0.0449481 0.0392344 0
-0.0447317 0.0151028 0
-0.0391853 0.0203331 0
-0.0449481 0.0392344 0
-0.0292494 0.0246967 0
-0.0391853 0.0203331 0
-0.0209057 0.00404504 0
-0.0541538 0.0382894 0
-0.0430585 0.0274267 0
-0.0292494 0.0246967 0
-0.00169778 -0.00449383 0
-0.0430585 0.0274267 0
-0.0140319 0.0125435 0
-0.00169778 -0.00449383 0
0.0123761 -0.00657447 0
-0.0292494 0.0246967 0
-0.00169778 -0.00449383 0
-0.0209057 0.00404504 0
-0.023174 -0.0127873 0
-0.00169778 -0.00449383 0
0.0123761 -0.00657447 0
-0.023174 -0.0127873 0
-0.0315115 -0.00443512 0
0 0 0
0 0 0
-0.000978272 0.00692789 0
-0.0452734 0.0445881 0
0 0 0
0 0 0
-0.0452734 0.0445881 0
-0.0449255 -0.0437826 0
-0.000978272 0.00692789 0
-0.0452734 0.0445881 0
-0.00737172 0.0282446 0
0.0196813 0.0436408 0
-0.0452734 0.0445881 0
-0.0449255 -0.0437826 0
0.0196813 0.0436408 0
0.0164916 -0.0389434 0
-0.00737172 0.0282446 0
0.0196813 0.0436408 0
-0.011696 0.0387392 0
0.0127231 -0.0253449 0
0.0196813 0.0436408 0
0.0164916 -0.0389434 0
0.0127231 -0.0253449 0
0.00620107 0.0401438 0
-0.011696 0.0387392 0
0.0127231 -0.0253449 0
-0.0140319 0.0125435 0
-0.00516082 -0.0355496 0
0.0127231 -0.0253449 0
0.00620107 0.0401438 0
-0.00516082 -0.0355496 0
-0.0188364 0.0724528 0
-0.0140319 0.0125435 0
-0.00516082 -0.0355496 0
0.0123761 -0.00657447 0
-0.0187773 0.00886623 0
-0.00516082 -0.0355496 0
-0.0188364 0.0724528 0
-0.0187773 0.00886623 0
-0.0310833 0.0576797 0
0.0123761 -0.00657447 0
-0.0187773 0.00886623 0
-0.0315115 -0.00443512 0
-0.0162353 0.0252806 0
-0.0187773 0.00886623 0
-0.0310833 0.0576797 0
-0.0162353 0.0252806 0
0.00581948 0.030342 0
0 0 0
0 0 0
-0.0449255 -0.0437826 0
-0.020789 0.0145117 0
0 0 0
0 0 0
-0.020789 0.0145117 0
-0.0263916 -0.00697514 0
-0.0449255 -0.0437826 0
-0.020789 0.0145117 0
0.0164916 -0.0389434 0
-0.0316191 0.0367503 0
-0.020789 0.0145117 0
-0.0263916 -0.00697514 0
-0.0316191 0.0367503 0
-0.0441506 -0.00641916 0
0.0164916 -0.0389434 0
-0.0316191 0.0367503 0
0.00620107 0.0401438 0
-0.0210356 0.0458954 0
-0.0316191 0.0367503 0
-0.0441506 -0.00641916 0
-0.0210356 0.0458954 0
-0.0217912 0.00050607 0
0.00620107 0.0401438 0
-0.0210356 0.0458954 0
-0.0188364 0.0724528 0
-0.00352449 0.0274174 0
-0.0210356 0.0458954 0
-0.0217912 0.00050607 0
-0.00352449 0.0274174 0
0.0204176 -0.00812233 0
-0.0188364 0.0724528 0
-0.00352449 0.0274174 0
-0.0310833 0.0576797 0
-0.0156644 0.00636491 0
-0.00352449 0.0274174 0
0.0204176 -0.00812233 0
-0.0156644 0.00636491 0
-0.00821184 -0.023622 0
-0.0310833 0.0576797 0
-0.0156644 0.00636491 0
0.00581948 0.030342 0
0.0157373 0.00380182 0
-0.0156644 0.00636491 0
-0.00821184 -0.023622 0
0.0157373 0.00380182 0
-0.0022612 -0.0088389 0
0 0 0
0 0 0
-0.0263916 -0.00697514 0
-0.0183314 -0.00295589 0
0 0 0
0 0 0
-0.0183314 -0.00295589 0
-0.00350901 -0.0140844 0
-0.0263916 -0.00697514 0
-0.0183314 -0.00295589 0
-0.0441506 -0.00641916 0
-0.0403608 -0.017855 0
-0.0183314 -0.00295589 0
-0.00350901 -0.0140844 0
-0.0403608 -0.017855 0
-0.0265903 -0.0321412 0
-0.0441506 -0.00641916 0
-0.0403608 -0.017855 0
-0.0217912 0.00050607 0
-0.0275001 -0.0226255 0
-0.0403608 -0.017855 0
-0.0265903 -0.0321412 0
-0.0275001 -0.0226255 0
-0.0289397 -0.0420208 0
-0.0217912 0.00050607 0
-0.0275001 -0.0226255 0
0.0204176 -0.00812233 0
0.0139126 0.000102971 0
-0.0275001 -0.0226255 0
-0.0289397 -0.0420208 0
0.0139126 0.000102971 0
-0.0116374 -0.0334434 0
0.0204176 -0.00812233 0
0.0139126 0.000102971 0
-0.00821184 -0.023622 0
-0.0036481 0.0179623 0
0.0139126 0.000102971 0
-0.0116374 -0.0334434 0
-0.0036481 0.0179623 0
-0.0042117 -0.0210324 0
-0.00821184 -0.023622 0
-0.0036481 0.0179623 0
-0.0022612 -0.0088389 0
0.00506263 -0.011215 0
-0.0036481 0.0179623 0
-0.0042117 -0.0210324 0
0.00506263 -0.011215 0
0.00827014 0.00487727 0
0 0 0
0 0 0
-0.00350901 -0.0140844 0
0.00437659 0.00489099 0
0 0 0
0 0 0
0.00437659 0.00489099 0
0 0 0
-0.00350901 -0.0140844 0
0.00437659 0.00489099 0
-0.0265903 -0.0321412 0
-0.0114156 -0.00368246 0
0.00437659 0.00489099 0
0 0 0
-0.0114156 -0.00368246 0
0 0 0
-0.0265903 -0.0321412 0
-0.0114156 -0.00368246 0
-0.0289397 -0.0420208 0
-0.0118705 -0.0315074 0
-0.0114156 -0.00368246 0
0 0 0
-0.0118705 -0.0315074 0
0 0 0
-0.0289397 -0.0420208 0
-0.0118705 -0.0315074 0
-0.0116374 -0.0334434 0
-0.0117757 -0.0595917 0
-0.0118705 -0.0315074 0
0 0 0
-0.0117757 -0.0595917 0
0 0 0
-0.0116374 -0.0334434 0
-0.0117757 -0.0595917 0
-0.0042117 -0.0210324 0
-0.00142242 -0.075356 0
-0.0117757 -0.0595917 0
0 0 0
-0.00142242 -0.075356 0
0 0 0
-0.0042117 -0.0210324 0
-0.00142242 -0.075356 0
0.00827014 0.00487727 0
-0.00810475 -0.0865875 0
-0.00142242 -0.075356 0
0 0 0
-0.00810475 -0.0865875 0
0 0 0
0.170256 0.0074561 0
0.197046 0.00741804 0
0.174431 0.00461375 0
0.193245 0.00483133 0
0.197046 0.00741804 0
0.132571 0.00275736 0
0.193245 0.00483133 0
0.129809 0.00200124 0
0.174431 0.00461375 0
0.193245 0.00483133 0
0.17799 0.00275331 0
0.190861 0.00339325 0
0.193245 0.00483133 0
0.129809 0.00200124 0
0.190861 0.00339325 0
0.127776 0.00106837 0
0.202175 0.00483194 0
0.0395801 0.00514162 0
0.1935 0.00478958 0
0.0486694 0.00502116 0
0.0395801 0.00514162 0
0.286193 -1.23246e-08 0
0.0486694 0.00502116 0
0.268445 -6.86166e-09 0
0.1935 0.00478958 0
0.0486694 0.00502116 0
0.185669 0.00471684 0
0.0565602 0.00467274 0
0.0486694 0.00502116 0
0.268445 -6.86166e-09 0
0.0565602 0.00467274 0
0.252392 5.1861e-09 0
0.185669 0.00471684 0
0.0565602 0.00467274 0
0.178357 0.00440751 0
0.0636534 0.00443986 0
0.0565602 0.00467274 0
0.252392 5.1861e-09 0
0.0636534 0.00443986 0
0.237699 1.05433e-08 0
0.178357 0.00440751 0
0.0636534 0.00443986 0
0.171681 0.00415478 0
0.0700682 0.0041009 0
0.0636534 0.00443986 0
0.237699 1.05433e-08 0
0.0700682 0.0041009 0
0.224204 2.31088e-08 0
0.171681 0.00415478 0
0.0700682 0.0041009 0
0.1656 0.00393369 0
0.0757663 0.00387483 0
0.0700682 0.0041009 0
0.224204 2.31088e-08 0
0.0757663 0.00387483 0
0.211944 2.02399e-08 0
0.1656 0.00393369 0
0.0757663 0.00387483 0
0.159992 0.00403435 0
0.0806882 0.00360501 0
0.0757663 0.00387483 0
0.211944 2.02399e-08 0
0.0806882 0.00360501 0
0.200937 2.58494e-08 0
0.159992 0.00403435 0
0.0806882 0.00360501 0
0.154724 0.0040827 0
0.0848231 0.00352959 0
0.0806882 0.00360501 0
0.200937 2.58494e-08 0
0.0848231 0.00352959 0
0.191059 1.86344e-08 0
0.154724 0.0040827 0
0.0848231 0.00352959 0
0.149679 0.00426626 0
0.0882508 0.00333935 0
0.0848231 0.00352959 0
0.191059 1.86344e-08 0
0.0882508 0.00333935 0
0.182098 2.68297e-08 0
0.149679 0.00426626 0
0.0882508 0.00333935 0
0.144818 0.00426431 0
0.0909995 0.00326929 0
0.0882508 0.00333935 0
0.182098 2.68297e-08 0
0.0909995 0.00326929 0
0.174033 1.21301e-08 0
0.144818 0.00426431 0
0.0909995 0.00326929 0
0.140186 0.00435456 0
0.093156 0.00302786 0
0.0909995 0.00326929 0
0.174033 1.21301e-08 0
0.093156 0.00302786 0
0.16688 2.03695e-08 0
0.140186 0.00435456 0
0.093156 0.00302786 0
0.135959 0.0038048 0
0.0949613 0.00294447 0
0.093156 0.00302786 0
0.16688 2.03695e-08 0
0.0949613 0.00294447 0
0.16041 1.59239e-08 0
0.135959 0.0038048 0
0.0949613 0.00294447 0
0.132571 0.00275736 0
0.0966629 0.00249837 0
0.0949613 0.00294447 0