# vtk DataFile Version 3.0
#This file was generated by the deal.II library on 2026/3/26 at 11:13:31
ASCII
DATASET UNSTRUCTURED_GRID

POINTS 3648 double
0 0 0
0.214286 0 0
0 0.25 0
0.214286 0.25 0
0 0.25 0
0.214286 0.25 0
0 0.5 0
0.214286 0.5 0
0.214286 0 0
0.428571 0 0
0.214286 0.25 0
0.428571 0.25 0
0.214286 0.25 0
0.428571 0.25 0
0.214286 0.5 0
0.428571 0.5 0
0.428571 0 0
0.642857 0 0
0.428571 0.25 0
0.642857 0.25 0
0.428571 0.25 0
0.642857 0.25 0
0.428571 0.5 0
0.642857 0.5 0
0.428571 0.5 0
0.642857 0.5 0
0.428571 0.75 0
0.642857 0.75 0
0.642857 0 0
0.857143 0 0
0.642857 0.25 0
0.857143 0.25 0
0.642857 0.25 0
0.857143 0.25 0
0.642857 0.5 0
0.857143 0.5 0
0.642857 0.5 0
0.857143 0.5 0
0.642857 0.75 0
0.857143 0.75 0
0.857143 0 0
1.07143 0 0
0.857143 0.25 0
1.07143 0.25 0
0.857143 0.25 0
1.07143 0.25 0
0.857143 0.5 0
1.07143 0.5 0
0.857143 0.5 0
1.07143 0.5 0
0.857143 0.75 0
1.07143 0.75 0
1.07143 0 0
1.28571 0 0
1.07143 0.25 0
1.28571 0.25 0
1.07143 0.25 0
1.28571 0.25 0
1.07143 0.5 0
1.28571 0.5 0
1.07143 0.5 0
1.28571 0.5 0
1.07143 0.75 0
1.28571 0.75 0
1.28571 0 0
1.5 0 0
1.28571 0.25 0
1.5 0.25 0
1.28571 0.25 0
1.5 0.25 0
1.28571 0.5 0
1.5 0.5 0
1.5 0 0
1.71429 0 0
1.5 0.25 0
1.71429 0.25 0
1.5 0.25 0
1.71429 0.25 0
1.5 0.5 0
1.71429 0.5 0
1.71429 0 0
1.92857 0 0
1.71429 0.25 0
1.92857 0.25 0
1.71429 0.25 0
1.92857 0.25 0
1.71429 0.5 0
1.92857 0.5 0
1.92857 0 0
2.14286 0 0
1.92857 0.25 0
2.14286 0.25 0
1.92857 0.25 0
2.14286 0.25 0
1.92857 0.5 0
2.14286 0.5 0
0 3 0
0 2.75 0
0.214286 3 0
0.214286 2.75 0
0.214286 3 0
0.214286 2.75 0
0.428571 3 0
0.428571 2.75 0
0.428571 3 0
0.428571 2.75 0
0.642857 3 0
0.642857 2.75 0
0.642857 3 0
0.642857 2.75 0
0.857143 3 0
0.857143 2.75 0
0.857143 3 0
0.857143 2.75 0
1.07143 3 0
1.07143 2.75 0
1.07143 3 0
1.07143 2.75 0
1.28571 3 0
1.28571 2.75 0
1.28571 3 0
1.28571 2.75 0
1.5 3 0
1.5 2.75 0
1.5 3 0
1.5 2.75 0
1.71429 3 0
1.71429 2.75 0
1.71429 3 0
1.71429 2.75 0
1.92857 3 0
1.92857 2.75 0
1.92857 3 0
1.92857 2.75 0
2.14286 3 0
2.14286 2.75 0
0 2.75 0
0 2.5 0
0.214286 2.75 0
0.214286 2.5 0
0.214286 2.75 0
0.214286 2.5 0
0.428571 2.75 0
0.428571 2.5 0
0.428571 2.75 0
0.428571 2.5 0
0.642857 2.75 0
0.642857 2.5 0
0.642857 2.75 0
0.642857 2.5 0
0.857143 2.75 0
0.857143 2.5 0
0.857143 2.75 0
0.857143 2.5 0
1.07143 2.75 0
1.07143 2.5 0
1.07143 2.75 0
1.07143 2.5 0
1.28571 2.75 0
1.28571 2.5 0
1.28571 2.75 0
1.28571 2.5 0
1.5 2.75 0
1.5 2.5 0
1.5 2.75 0
1.5 2.5 0
1.71429 2.75 0
1.71429 2.5 0
1.71429 2.75 0
1.71429 2.5 0
1.92857 2.75 0
1.92857 2.5 0
1.92857 2.75 0
1.92857 2.5 0
2.14286 2.75 0
2.14286 2.5 0
0.428571 2.5 0
0.428571 2.25 0
0.642857 2.5 0
0.642857 2.25 0
0.642857 2.5 0
0.642857 2.25 0
0.857143 2.5 0
0.857143 2.25 0
0.857143 2.5 0
0.857143 2.25 0
1.07143 2.5 0
1.07143 2.25 0
1.07143 2.5 0
1.07143 2.25 0
1.28571 2.5 0
1.28571 2.25 0
0.214286 0.75 0
0.321429 0.75 0
0.214286 0.875 0
0.321429 0.875 0
0.321429 0.75 0
0.428571 0.75 0
0.321429 0.875 0
0.428571 0.875 0
0.214286 0.875 0
0.321429 0.875 0
0.214286 1 0
0.321429 1 0
0.321429 0.875 0
0.428571 0.875 0
0.321429 1 0
0.428571 1 0
0.428571 0.75 0
0.535714 0.75 0
0.428571 0.875 0
0.535714 0.875 0
0.535714 0.75 0
0.642857 0.75 0
0.535714 0.875 0
0.642857 0.875 0
0.428571 0.875 0
0.535714 0.875 0
0.428571 1 0
0.535714 1 0
0.535714 0.875 0
0.642857 0.875 0
0.535714 1 0
0.642857 1 0
0.642857 0.75 0
0.75 0.75 0
0.642857 0.875 0
0.75 0.875 0
0.75 0.75 0
0.857143 0.75 0
0.75 0.875 0
0.857143 0.875 0
0.642857 0.875 0
0.75 0.875 0
0.642857 1 0
0.75 1 0
0.75 0.875 0
0.857143 0.875 0
0.75 1 0
0.857143 1 0
0.857143 0.75 0
0.964286 0.75 0
0.857143 0.875 0
0.964286 0.875 0
0.964286 0.75 0
1.07143 0.75 0
0.964286 0.875 0
1.07143 0.875 0
0.857143 0.875 0
0.964286 0.875 0
0.857143 1 0
0.964286 1 0
0.964286 0.875 0
1.07143 0.875 0
0.964286 1 0
1.07143 1 0
1.07143 0.75 0
1.17857 0.75 0
1.07143 0.875 0
1.17857 0.875 0
1.17857 0.75 0
1.28571 0.75 0
1.17857 0.875 0
1.28571 0.875 0
1.07143 0.875 0
1.17857 0.875 0
1.07143 1 0
1.17857 1 0
1.17857 0.875 0
1.28571 0.875 0
1.17857 1 0
1.28571 1 0
0.214286 2 0
0.214286 1.875 0
0.321429 2 0
0.321429 1.875 0
0.214286 1.875 0
0.214286 1.75 0
0.321429 1.875 0
0.321429 1.75 0
0.321429 2 0
0.321429 1.875 0
0.428571 2 0
0.428571 1.875 0
0.321429 1.875 0
0.321429 1.75 0
0.428571 1.875 0
0.428571 1.75 0
0.428571 2 0
0.428571 1.875 0
0.535714 2 0
0.535714 1.875 0
0.428571 1.875 0
0.428571 1.75 0
0.535714 1.875 0
0.535714 1.75 0
0.535714 2 0
0.535714 1.875 0
0.642857 2 0
0.642857 1.875 0
0.535714 1.875 0
0.535714 1.75 0
0.642857 1.875 0
0.642857 1.75 0
0.642857 2 0
0.642857 1.875 0
0.75 2 0
0.75 1.875 0
0.642857 1.875 0
0.642857 1.75 0
0.75 1.875 0
0.75 1.75 0
0.75 2 0
0.75 1.875 0
0.857143 2 0
0.857143 1.875 0
0.75 1.875 0
0.75 1.75 0
0.857143 1.875 0
0.857143 1.75 0
0.857143 2 0
0.857143 1.875 0
0.964286 2 0
0.964286 1.875 0
0.857143 1.875 0
0.857143 1.75 0
0.964286 1.875 0
0.964286 1.75 0
0.964286 2 0
0.964286 1.875 0
1.07143 2 0
1.07143 1.875 0
0.964286 1.875 0
0.964286 1.75 0
1.07143 1.875 0
1.07143 1.75 0
1.07143 2 0
1.07143 1.875 0
1.17857 2 0
1.17857 1.875 0
1.07143 1.875 0
1.07143 1.75 0
1.17857 1.875 0
1.17857 1.75 0
1.17857 2 0
1.17857 1.875 0
1.28571 2 0
1.28571 1.875 0
1.17857 1.875 0
1.17857 1.75 0
1.28571 1.875 0
1.28571 1.75 0
0.214286 1.25 0
0.214286 1.125 0
0.321429 1.25 0
0.321429 1.125 0
0.214286 1.125 0
0.214286 1 0
0.321429 1.125 0
0.321429 1 0
0.321429 1.25 0
0.321429 1.125 0
0.428571 1.25 0
0.428571 1.125 0
0.321429 1.125 0
0.321429 1 0
0.428571 1.125 0
0.428571 1 0
0.428571 1.25 0
0.428571 1.125 0
0.535714 1.25 0
0.535714 1.125 0
0.428571 1.125 0
0.428571 1 0
0.535714 1.125 0
0.535714 1 0
0.535714 1.25 0
0.535714 1.125 0
0.642857 1.25 0
0.642857 1.125 0
0.535714 1.125 0
0.535714 1 0
0.642857 1.125 0
0.642857 1 0
0.642857 1.25 0
0.642857 1.125 0
0.75 1.25 0
0.75 1.125 0
0.642857 1.125 0
0.642857 1 0
0.75 1.125 0
0.75 1 0
0.75 1.25 0
0.75 1.125 0
0.857143 1.25 0
0.857143 1.125 0
0.75 1.125 0
0.75 1 0
0.857143 1.125 0
0.857143 1 0
0.857143 1.25 0
0.857143 1.125 0
0.964286 1.25 0
0.964286 1.125 0
0.857143 1.125 0
0.857143 1 0
0.964286 1.125 0
0.964286 1 0
0.964286 1.25 0
0.964286 1.125 0
1.07143 1.25 0
1.07143 1.125 0
0.964286 1.125 0
0.964286 1 0
1.07143 1.125 0
1.07143 1 0
1.07143 1.25 0
1.07143 1.125 0
1.17857 1.25 0
1.17857 1.125 0
1.07143 1.125 0
1.07143 1 0
1.17857 1.125 0
1.17857 1 0
1.17857 1.25 0
1.17857 1.125 0
1.28571 1.25 0
1.28571 1.125 0
1.17857 1.125 0
1.17857 1 0
1.28571 1.125 0
1.28571 1 0
0.214286 2.25 0
0.214286 2.125 0
0.321429 2.25 0
0.321429 2.125 0
0.214286 2.125 0
0.214286 2 0
0.321429 2.125 0
0.321429 2 0
0.321429 2.25 0
0.321429 2.125 0
0.428571 2.25 0
0.428571 2.125 0
0.321429 2.125 0
0.321429 2 0
0.428571 2.125 0
0.428571 2 0
0.428571 2.25 0
0.428571 2.125 0
0.535714 2.25 0
0.535714 2.125 0
0.428571 2.125 0
0.428571 2 0
0.535714 2.125 0
0.535714 2 0
0.535714 2.25 0
0.535714 2.125 0
0.642857 2.25 0
0.642857 2.125 0
0.535714 2.125 0
0.535714 2 0
0.642857 2.125 0
0.642857 2 0
0.642857 2.25 0
0.642857 2.125 0
0.75 2.25 0
0.75 2.125 0
0.642857 2.125 0
0.642857 2 0
0.75 2.125 0
0.75 2 0
0.75 2.25 0
0.75 2.125 0
0.857143 2.25 0
0.857143 2.125 0
0.75 2.125 0
0.75 2 0
0.857143 2.125 0
0.857143 2 0
0.857143 2.25 0
0.857143 2.125 0
0.964286 2.25 0
0.964286 2.125 0
0.857143 2.125 0
0.857143 2 0
0.964286 2.125 0
0.964286 2 0
0.964286 2.25 0
0.964286 2.125 0
1.07143 2.25 0
1.07143 2.125 0
0.964286 2.125 0
0.964286 2 0
1.07143 2.125 0
1.07143 2 0
1.07143 2.25 0
1.07143 2.125 0
1.17857 2.25 0
1.17857 2.125 0
1.07143 2.125 0
1.07143 2 0
1.17857 2.125 0
1.17857 2 0
1.17857 2.25 0
1.17857 2.125 0
1.28571 2.25 0
1.28571 2.125 0
1.17857 2.125 0
1.17857 2 0
1.28571 2.125 0
1.28571 2 0
0 0.5 0
0.107143 0.5 0
0 0.625 0
0.107143 0.625 0
0.107143 0.5 0
0.214286 0.5 0
0.107143 0.625 0
0.214286 0.625 0
0 0.625 0
0.107143 0.625 0
0 0.75 0
0.107143 0.75 0
0.107143 0.625 0
0.214286 0.625 0
0.107143 0.75 0
0.214286 0.75 0
0.214286 0.5 0
0.321429 0.5 0
0.214286 0.625 0
0.321429 0.625 0
0.321429 0.5 0
0.428571 0.5 0
0.321429 0.625 0
0.428571 0.625 0
0.214286 0.625 0
0.321429 0.625 0
0.214286 0.75 0
0.321429 0.75 0
0.321429 0.625 0
0.428571 0.625 0
0.321429 0.75 0
0.428571 0.75 0
1.28571 0.5 0
1.39286 0.5 0
1.28571 0.625 0
1.39286 0.625 0
1.39286 0.5 0
1.5 0.5 0
1.39286 0.625 0
1.5 0.625 0
1.28571 0.625 0
1.39286 0.625 0
1.28571 0.75 0
1.39286 0.75 0
1.39286 0.625 0
1.5 0.625 0
1.39286 0.75 0
1.5 0.75 0
1.28571 0.75 0
1.39286 0.75 0
1.28571 0.875 0
1.39286 0.875 0
1.39286 0.75 0
1.5 0.75 0
1.39286 0.875 0
1.5 0.875 0
1.28571 0.875 0
1.39286 0.875 0
1.28571 1 0
1.39286 1 0
1.39286 0.875 0
1.5 0.875 0
1.39286 1 0
1.5 1 0
1.5 0.5 0
1.60714 0.5 0
1.5 0.625 0
1.60714 0.625 0
1.60714 0.5 0
1.71429 0.5 0
1.60714 0.625 0
1.71429 0.625 0
1.5 0.625 0
1.60714 0.625 0
1.5 0.75 0
1.60714 0.75 0
1.60714 0.625 0
1.71429 0.625 0
1.60714 0.75 0
1.71429 0.75 0
1.71429 0.5 0
1.82143 0.5 0
1.71429 0.625 0
1.82143 0.625 0
1.82143 0.5 0
1.92857 0.5 0
1.82143 0.625 0
1.92857 0.625 0
1.71429 0.625 0
1.82143 0.625 0
1.71429 0.75 0
1.82143 0.75 0
1.82143 0.625 0
1.92857 0.625 0
1.82143 0.75 0
1.92857 0.75 0
1.92857 0.5 0
2.03571 0.5 0
1.92857 0.625 0
2.03571 0.625 0
2.03571 0.5 0
2.14286 0.5 0
2.03571 0.625 0
2.14286 0.625 0
1.92857 0.625 0
2.03571 0.625 0
1.92857 0.75 0
2.03571 0.75 0
2.03571 0.625 0
2.14286 0.625 0
2.03571 0.75 0
2.14286 0.75 0
2.14286 0 0
2.25 0 0
2.14286 0.125 0
2.25 0.125 0
2.25 0 0
2.35714 0 0
2.25 0.125 0
2.35714 0.125 0
2.14286 0.125 0
2.25 0.125 0
2.14286 0.25 0
2.25 0.25 0
2.25 0.125 0
2.35714 0.125 0
2.25 0.25 0
2.35714 0.25 0
2.14286 0.25 0
2.25 0.25 0
2.14286 0.375 0
2.25 0.375 0
2.25 0.25 0
2.35714 0.25 0
2.25 0.375 0
2.35714 0.375 0
2.14286 0.375 0
2.25 0.375 0
2.14286 0.5 0
2.25 0.5 0
2.25 0.375 0
2.35714 0.375 0
2.25 0.5 0
2.35714 0.5 0
2.14286 0.5 0
2.25 0.5 0
2.14286 0.625 0
2.25 0.625 0
2.25 0.5 0
2.35714 0.5 0
2.25 0.625 0
2.35714 0.625 0
2.14286 0.625 0
2.25 0.625 0
2.14286 0.75 0
2.25 0.75 0
2.25 0.625 0
2.35714 0.625 0
2.25 0.75 0
2.35714 0.75 0
2.35714 0 0
2.46429 0 0
[...]
POINT_DATA 3648
VECTORS velocity double
0 0 0
0 0 0
0 0 0
0.000750216 -0.00162043 0
0 0 0
0.000750216 -0.00162043 0
0 0 0
-0.00238119 0.000799979 0
0 0 0
0 0 0
0.000750216 -0.00162043 0
0.000975061 6.03417e-05 0
0.000750216 -0.00162043 0
0.000975061 6.03417e-05 0
-0.00238119 0.000799979 0
-0.00613768 0.00252424 0
0 0 0
0 0 0
0.000975061 6.03417e-05 0
-0.000601639 0.000487924 0
0.000975061 6.03417e-05 0
-0.000601639 0.000487924 0
-0.00613768 0.00252424 0
-0.00857449 0.00347459 0
-0.00613768 0.00252424 0
-0.00857449 0.00347459 0
-0.000717942 0.00560747 0
-0.00284976 0.00572254 0
0 0 0
0 0 0
-0.000601639 0.000487924 0
-0.00106943 -0.00131123 0
-0.000601639 0.000487924 0
-0.00106943 -0.00131123 0
-0.00857449 0.00347459 0
-0.0103184 -0.000954732 0
-0.00857449 0.00347459 0
-0.0103184 -0.000954732 0
-0.00284976 0.00572254 0
-0.00564827 0.00204216 0
0 0 0
0 0 0
-0.00106943 -0.00131123 0
0.00386684 -0.00594921 0
-0.00106943 -0.00131123 0
0.00386684 -0.00594921 0
-0.0103184 -0.000954732 0
-0.0149258 -0.00578955 0
-0.0103184 -0.000954732 0
-0.0149258 -0.00578955 0
-0.00564827 0.00204216 0
-0.0079719 -0.00072539 0
0 0 0
0 0 0
0.00386684 -0.00594921 0
0.0167259 -0.0111318 0
0.00386684 -0.00594921 0
0.0167259 -0.0111318 0
-0.0149258 -0.00578955 0
-0.0220082 -0.0170919 0
-0.0149258 -0.00578955 0
-0.0220082 -0.0170919 0
-0.0079719 -0.00072539 0
-0.0110179 -0.0104681 0
0 0 0
0 0 0
0.0167259 -0.0111318 0
0.0390791 -0.0174842 0
0.0167259 -0.0111318 0
0.0390791 -0.0174842 0
-0.0220082 -0.0170919 0
-0.0285911 -0.0283727 0
0 0 0
0 0 0
0.0390791 -0.0174842 0
0.0508947 0.000797813 0
0.0390791 -0.0174842 0
0.0508947 0.000797813 0
-0.0285911 -0.0283727 0
-0.0534765 0.028522 0
0 0 0
0 0 0
0.0508947 0.000797813 0
0.0474497 0.00058296 0
0.0508947 0.000797813 0
0.0474497 0.00058296 0
-0.0534765 0.028522 0
-0.0858902 0.0156721 0
0 0 0
0 0 0
0.0474497 0.00058296 0
0.0320438 0.016807 0
0.0474497 0.00058296 0
0.0320438 0.016807 0
-0.0858902 0.0156721 0
-0.0568159 -0.012996 0
0 0 0
0 0 0
0 0 0
0.000750212 0.00162043 0
0 0 0
0.000750212 0.00162043 0
0 0 0
0.000975049 -6.03444e-05 0
0 0 0
0.000975049 -6.03444e-05 0
0 0 0
-0.000601654 -0.000487924 0
0 0 0
-0.000601654 -0.000487924 0
0 0 0
-0.00106944 0.00131123 0
0 0 0
-0.00106944 0.00131123 0
0 0 0
0.00386684 0.00594922 0
0 0 0
0.00386684 0.00594922 0
0 0 0
0.0167259 0.0111319 0
0 0 0
0.0167259 0.0111319 0
0 0 0
0.039079 0.0174841 0
0 0 0
0.039079 0.0174841 0
0 0 0
0.0508946 -0.000797781 0
0 0 0
0.0508946 -0.000797781 0
0 0 0
0.0474496 -0.000582952 0
0 0 0
0.0474496 -0.000582952 0
0 0 0
0.0320438 -0.016807 0
0 0 0
0 0 0
0.000750212 0.00162043 0
-0.00238119 -0.000799988 0
0.000750212 0.00162043 0
-0.00238119 -0.000799988 0
0.000975049 -6.03444e-05 0
-0.00613766 -0.00252424 0
0.000975049 -6.03444e-05 0
-0.00613766 -0.00252424 0
-0.000601654 -0.000487924 0
-0.00857446 -0.00347458 0
-0.000601654 -0.000487924 0
-0.00857446 -0.00347458 0
-0.00106944 0.00131123 0
-0.0103183 0.000954737 0
-0.00106944 0.00131123 0
-0.0103183 0.000954737 0
0.00386684 0.00594922 0
-0.0149258 0.00578955 0
0.00386684 0.00594922 0
-0.0149258 0.00578955 0
0.0167259 0.0111319 0
-0.0220082 0.0170919 0
0.0167259 0.0111319 0
-0.0220082 0.0170919 0
0.039079 0.0174841 0
-0.0285911 0.0283726 0
0.039079 0.0174841 0
-0.0285911 0.0283726 0
0.0508946 -0.000797781 0
-0.0534764 -0.028522 0
0.0508946 -0.000797781 0
-0.0534764 -0.028522 0
0.0474496 -0.000582952 0
-0.0858902 -0.0156721 0
0.0474496 -0.000582952 0
-0.0858902 -0.0156721 0
0.0320438 -0.016807 0
-0.0568158 0.012996 0
-0.00613766 -0.00252424 0
-0.000717946 -0.00560746 0
-0.00857446 -0.00347458 0
-0.00284978 -0.00572253 0
-0.00857446 -0.00347458 0
-0.00284978 -0.00572253 0
-0.0103183 0.000954737 0
-0.0056483 -0.00204215 0
-0.0103183 0.000954737 0
-0.0056483 -0.00204215 0
-0.0149258 0.00578955 0
-0.00797192 0.000725372 0
-0.0149258 0.00578955 0
-0.00797192 0.000725372 0
-0.0220082 0.0170919 0
-0.0110179 0.0104681 0
0.00559919 0.00441228 0
0.00282261 0.00506209 0
-0.0139282 0.00615773 0
-0.0137467 0.00653881 0
0.00282261 0.00506209 0
-0.000717942 0.00560747 0
-0.0137467 0.00653881 0
-0.0100696 0.00427166 0
-0.0139282 0.00615773 0
-0.0137467 0.00653881 0
0.0377282 -0.00209125 0
0.0534858 -0.0036005 0
-0.0137467 0.00653881 0
-0.0100696 0.00427166 0
0.0534858 -0.0036005 0
0.0659496 -0.00447861 0
-0.000717942 0.00560747 0
-0.00197004 0.00566441 0
-0.0100696 0.00427166 0
-0.00562575 0.00364242 0
-0.00197004 0.00566441 0
-0.00284976 0.00572254 0
-0.00562575 0.00364242 0
-0.000212536 0.0028595 0
-0.0100696 0.00427166 0
-0.00562575 0.00364242 0
0.0659496 -0.00447861 0
0.0759652 -0.00472796 0
-0.00562575 0.00364242 0
-0.000212536 0.0028595 0
0.0759652 -0.00472796 0
0.0840523 -0.00489634 0
-0.00284976 0.00572254 0
-0.00389856 0.00395174 0
-0.000212536 0.0028595 0
0.00534355 0.00198979 0
-0.00389856 0.00395174 0
-0.00564827 0.00204216 0
0.00534355 0.00198979 0
0.0103719 0.000624689 0
-0.000212536 0.0028595 0
0.00534355 0.00198979 0
0.0840523 -0.00489634 0
0.090656 -0.00492658 0
0.00534355 0.00198979 0
0.0103719 0.000624689 0
0.090656 -0.00492658 0
0.0960068 -0.00508249 0
-0.00564827 0.00204216 0
-0.00727916 0.000584795 0
0.0103719 0.000624689 0
0.0145461 -0.000547867 0
-0.00727916 0.000584795 0
-0.0079719 -0.00072539 0
0.0145461 -0.000547867 0
0.0177648 -0.00216989 0
0.0103719 0.000624689 0
0.0145461 -0.000547867 0
0.0960068 -0.00508249 0
0.100327 -0.00531481 0
0.0145461 -0.000547867 0
0.0177648 -0.00216989 0
0.100327 -0.00531481 0
0.103684 -0.0055721 0
-0.0079719 -0.00072539 0
-0.00884562 -0.00538095 0
0.0177648 -0.00216989 0
0.0192227 -0.00427789 0
-0.00884562 -0.00538095 0
-0.0110179 -0.0104681 0
0.0192227 -0.00427789 0
0.0175295 -0.00677434 0
0.0177648 -0.00216989 0
0.0192227 -0.00427789 0
0.103684 -0.0055721 0
0.106223 -0.00600849 0
0.0192227 -0.00427789 0
0.0175295 -0.00677434 0
0.106223 -0.00600849 0
0.10804 -0.00546806 0
0.0377282 0.00209125 0
0.150136 0.00918956 0
0.0534858 0.0036005 0
0.145275 0.00890613 0
0.150136 0.00918956 0
0.277152 0.00105744 0
0.145275 0.00890613 0
0.268472 0.00153347 0
0.0534858 0.0036005 0
0.145275 0.00890613 0
0.0659496 0.00447861 0
0.141149 0.00839556 0
0.145275 0.00890613 0
0.268472 0.00153347 0
0.141149 0.00839556 0
0.260404 0.00198001 0
0.0659496 0.00447861 0
0.141149 0.00839556 0
0.0759652 0.00472796 0
0.137865 0.00799775 0
0.141149 0.00839556 0
0.260404 0.00198001 0
0.137865 0.00799775 0
0.252888 0.00234083 0
0.0759652 0.00472796 0
0.137865 0.00799775 0
0.0840523 0.00489634 0
0.135407 0.00741907 0
0.137865 0.00799775 0
0.252888 0.00234083 0
0.135407 0.00741907 0
0.245851 0.00259699 0
0.0840523 0.00489634 0
0.135407 0.00741907 0
0.090656 0.00492658 0
0.133599 0.00716037 0
0.135407 0.00741907 0
0.245851 0.00259699 0
0.133599 0.00716037 0
0.239279 0.00278004 0
0.090656 0.00492658 0
0.133599 0.00716037 0
0.0960069 0.0050825 0
0.132267 0.00669549 0
0.133599 0.00716037 0
0.239279 0.00278004 0
0.132267 0.00669549 0
0.233114 0.00289002 0
0.0960069 0.0050825 0
0.132267 0.00669549 0
0.100327 0.00531481 0
0.13119 0.00668827 0
0.132267 0.00669549 0
0.233114 0.00289002 0
0.13119 0.00668827 0
0.227311 0.00291666 0
0.100327 0.00531481 0
0.13119 0.00668827 0
0.103684 0.0055721 0
0.130209 0.00628319 0
0.13119 0.00668827 0
0.227311 0.00291666 0
0.130209 0.00628319 0
0.221832 0.00289551 0
0.103684 0.0055721 0
0.130209 0.00628319 0
0.106223 0.00600849 0
0.129135 0.00641279 0
0.130209 0.00628319 0
0.221832 0.00289551 0
0.129135 0.00641279 0
0.216672 0.00269034 0
0.106223 0.00600849 0
0.129135 0.00641279 0
0.10804 0.00546806 0
0.127872 0.00521255 0
0.129135 0.00641279 0
0.216672 0.00269034 0
0.127872 0.00521255 0
0.212003 0.00213272 0
0.277152 -0.00105744 0
0.150136 -0.00918955 0
0.268472 -0.00153346 0
0.145275 -0.00890613 0
0.150136 -0.00918955 0
0.0377282 -0.00209125 0
0.145275 -0.00890613 0
0.0534858 -0.0036005 0
0.268472 -0.00153346 0
0.145275 -0.00890613 0
0.260404 -0.00198 0
0.141149 -0.00839555 0
0.145275 -0.00890613 0
0.0534858 -0.0036005 0
0.141149 -0.00839555 0
0.0659496 -0.00447861 0
0.260404 -0.00198 0
0.141149 -0.00839555 0
0.252888 -0.00234082 0
0.137865 -0.00799775 0
0.141149 -0.00839555 0
0.0659496 -0.00447861 0
0.137865 -0.00799775 0
0.0759652 -0.00472796 0
0.252888 -0.00234082 0
0.137865 -0.00799775 0
0.245851 -0.00259699 0
0.135407 -0.00741907 0
0.137865 -0.00799775 0
0.0759652 -0.00472796 0
0.135407 -0.00741907 0
0.0840523 -0.00489634 0
0.245851 -0.00259699 0
0.135407 -0.00741907 0
0.239279 -0.00278004 0
0.133599 -0.00716037 0
0.135407 -0.00741907 0
0.0840523 -0.00489634 0
0.133599 -0.00716037 0
0.090656 -0.00492658 0
0.239279 -0.00278004 0
0.133599 -0.00716037 0
0.233114 -0.00289002 0
0.132267 -0.00669549 0
0.133599 -0.00716037 0
0.090656 -0.00492658 0
0.132267 -0.00669549 0
0.0960068 -0.00508249 0
0.233114 -0.00289002 0
0.132267 -0.00669549 0
0.227311 -0.00291666 0
0.13119 -0.00668827 0
0.132267 -0.00669549 0
0.0960068 -0.00508249 0
0.13119 -0.00668827 0
0.100327 -0.00531481 0
0.227311 -0.00291666 0
0.13119 -0.00668827 0
0.221832 -0.00289551 0
0.130209 -0.00628319 0
0.13119 -0.00668827 0
0.100327 -0.00531481 0
0.130209 -0.00628319 0
0.103684 -0.0055721 0
0.221832 -0.00289551 0
0.130209 -0.00628319 0
0.216672 -0.00269034 0
0.129135 -0.00641279 0
0.130209 -0.00628319 0
0.103684 -0.0055721 0
0.129135 -0.00641279 0
0.106223 -0.00600849 0
0.216672 -0.00269034 0
0.129135 -0.00641279 0
0.212003 -0.00213272 0
0.127872 -0.00521255 0
0.129135 -0.00641279 0
0.106223 -0.00600849 0
0.127872 -0.00521255 0
0.10804 -0.00546806 0
0.00559919 -0.00441229 0
-0.0139282 -0.00615773 0
0.00282261 -0.00506208 0
-0.0137467 -0.00653881 0
-0.0139282 -0.00615773 0
0.0377282 0.00209125 0
-0.0137467 -0.00653881 0
0.0534858 0.0036005 0
0.00282261 -0.00506208 0
-0.0137467 -0.00653881 0
-0.000717946 -0.00560746 0
-0.0100696 -0.00427165 0
-0.0137467 -0.00653881 0
0.0534858 0.0036005 0
-0.0100696 -0.00427165 0
0.0659496 0.00447861 0
-0.000717946 -0.00560746 0
-0.0100696 -0.00427165 0
-0.00197005 -0.0056644 0
-0.00562576 -0.00364242 0
-0.0100696 -0.00427165 0
0.0659496 0.00447861 0
-0.00562576 -0.00364242 0
0.0759652 0.00472796 0
-0.00197005 -0.0056644 0
-0.00562576 -0.00364242 0
-0.00284978 -0.00572253 0
-0.000212542 -0.00285949 0
-0.00562576 -0.00364242 0
0.0759652 0.00472796 0
-0.000212542 -0.00285949 0
0.0840523 0.00489634 0
-0.00284978 -0.00572253 0
-0.000212542 -0.00285949 0
-0.00389858 -0.00395173 0
0.00534354 -0.00198979 0
-0.000212542 -0.00285949 0
0.0840523 0.00489634 0
0.00534354 -0.00198979 0
0.090656 0.00492658 0
-0.00389858 -0.00395173 0
0.00534354 -0.00198979 0
-0.0056483 -0.00204215 0
0.0103719 -0.000624683 0
0.00534354 -0.00198979 0
0.090656 0.00492658 0
0.0103719 -0.000624683 0
0.0960069 0.0050825 0
-0.0056483 -0.00204215 0
0.0103719 -0.000624683 0
-0.00727918 -0.0005848 0
0.0145461 0.000547868 0
0.0103719 -0.000624683 0
0.0960069 0.0050825 0
0.0145461 0.000547868 0
0.100327 0.00531481 0
-0.00727918 -0.0005848 0
0.0145461 0.000547868 0
-0.00797192 0.000725372 0
0.0177648 0.00216988 0
0.0145461 0.000547868 0
0.100327 0.00531481 0
0.0177648 0.00216988 0
0.103684 0.0055721 0
-0.00797192 0.000725372 0
0.0177648 0.00216988 0
-0.00884562 0.00538094 0
0.0192227 0.00427789 0
0.0177648 0.00216988 0
0.103684 0.0055721 0
0.0192227 0.00427789 0
0.106223 0.00600849 0
-0.00884562 0.00538094 0
0.0192227 0.00427789 0
-0.0110179 0.0104681 0
0.0175295 0.00677434 0
0.0192227 0.00427789 0
0.106223 0.00600849 0
0.0175295 0.00677434 0
0.10804 0.00546806 0
0 0 0
-0.000533132 0.000282353 0
0 0 0
-0.00139959 0.00265855 0
-0.000533132 0.000282353 0
-0.00238119 0.000799979 0
-0.00139959 0.00265855 0
-0.0037187 0.00337711 0
0 0 0
-0.00139959 0.00265855 0
0 0 0
0.00276425 0.00116626 0
-0.00139959 0.00265855 0
-0.0037187 0.00337711 0
0.00276425 0.00116626 0
0.00559919 0.00441228 0
-0.00238119 0.000799979 0
-0.00459901 0.00167945 0
-0.0037187 0.00337711 0
-0.00416369 0.00228459 0
-0.00459901 0.00167945 0
-0.00613768 0.00252424 0
-0.00416369 0.00228459 0
-0.00433642 0.00399543 0
-0.0037187 0.00337711 0
-0.00416369 0.00228459 0
0.00559919 0.00441228 0
0.00282261 0.00506209 0
-0.00416369 0.00228459 0
-0.00433642 0.00399543 0
0.00282261 0.00506209 0
-0.000717942 0.00560747 0
-0.0220082 -0.0170919 0
-0.0250984 -0.0230048 0
-0.0173213 -0.0137572 0
-0.0278405 -0.010712 0
-0.0250984 -0.0230048 0
-0.0285911 -0.0283727 0
-0.0278405 -0.010712 0
-0.0466112 -0.0152158 0
-0.0173213 -0.0137572 0
-0.0278405 -0.010712 0
-0.0110179 -0.0104681 0
-0.0127942 0.000400854 0
-0.0278405 -0.010712 0
-0.0466112 -0.0152158 0
-0.0127942 0.000400854 0
-0.0179979 0.00169052 0
-0.0110179 -0.0104681 0
-0.0127942 0.000400854 0
0.0175295 -0.00677434 0
0.0175277 -0.00112287 0
-0.0127942 0.000400854 0
-0.0179979 0.00169052 0
0.0175277 -0.00112287 0
0.023645 0.00214639 0
0.0175295 -0.00677434 0
0.0175277 -0.00112287 0
0.10804 -0.00546806 0
0.109263 -0.00411964 0
0.0175277 -0.00112287 0
0.023645 0.00214639 0
0.109263 -0.00411964 0
0.109939 -0.00280916 0
-0.0285911 -0.0283727 0
-0.03665 0.000163376 0
-0.0466112 -0.0152158 0
-0.0483197 -0.00198916 0
-0.03665 0.000163376 0
-0.0534765 0.028522 0
-0.0483197 -0.00198916 0
-0.0272676 0.0252212 0
-0.0466112 -0.0152158 0
-0.0483197 -0.00198916 0
-0.0179979 0.00169052 0
-0.03185 -0.000479147 0
-0.0483197 -0.00198916 0
-0.0272676 0.0252212 0
-0.03185 -0.000479147 0
-0.0338492 0.00158316 0
-0.0534765 0.028522 0
-0.0722729 0.0225546 0
-0.0272676 0.0252212 0
-0.014297 0.0321697 0
-0.0722729 0.0225546 0
-0.0858902 0.0156721 0
-0.014297 0.0321697 0
-0.0162411 0.0235098 0
-0.0272676 0.0252212 0
-0.014297 0.0321697 0
-0.0338492 0.00158316 0
-0.0248818 0.030347 0
-0.014297 0.0321697 0
-0.0162411 0.0235098 0
-0.0248818 0.030347 0
-0.0124271 0.0127339 0
-0.0858902 0.0156721 0
-0.0839141 0.000430108 0
-0.0162411 0.0235098 0
-0.00974805 -0.017532 0
-0.0839141 0.000430108 0
-0.0568159 -0.012996 0
-0.00974805 -0.017532 0
-0.0244121 -0.00945646 0
-0.0162411 0.0235098 0
-0.00974805 -0.017532 0
-0.0124271 0.0127339 0
-0.0183093 -0.00690493 0
-0.00974805 -0.017532 0
-0.0244121 -0.00945646 0
-0.0183093 -0.00690493 0
-0.02059 -0.000580858 0
0 0 0
0 0 0
0.027463 0.00429903 0
-0.011891 0.0420598 0
0 0 0
0 0 0
-0.011891 0.0420598 0
-0.0457705 -0.00144573 0
0.027463 0.00429903 0
-0.011891 0.0420598 0
0.0320438 0.016807 0
0.0323224 0.0751618 0
-0.011891 0.0420598 0
-0.0457705 -0.00144573 0
0.0323224 0.0751618 0
0.0367981 -1.06098e-05 0
0.0320438 0.016807 0
0.0323224 0.0751618 0
-0.0188878 0.0175131 0
0.0159705 0.0329955 0
0.0323224 0.0751618 0
0.0367981 -1.06098e-05 0
0.0159705 0.0329955 0
0.00882745 0.0443145 0
-0.0188878 0.0175131 0
0.0159705 0.0329955 0
-0.0568159 -0.012996 0
-0.0426403 0.00677766 0
0.0159705 0.0329955 0
0.00882745 0.0443145 0
-0.0426403 0.00677766 0
-0.0187379 0.0510394 0
-0.0568159 -0.012996 0
-0.0426403 0.00677766 0
-0.0244121 -0.00945646 0
-0.0373863 0.00186192 0
-0.0426403 0.00677766 0
-0.0187379 0.0510394 0
-0.0373863 0.00186192 0
-0.0190353 0.00667128 0
-0.0244121 -0.00945646 0
-0.0373863 0.00186192 0
-0.02059 -0.000580858 0
-0.00829765 -0.00622834 0
-0.0373863 0.00186192 0
-0.0190353 0.00667128 0
-0.00829765 -0.00622834 0
-0.0106887 -0.00374141 0
0 0 0
0 0 0
-0.0457705 -0.00144573 0
-0.0380303 -0.00668497 0
0 0 0
0 0 0
-0.0380303 -0.00668497 0
-0.0236925 -0.00980825 0
-0.0457705 -0.00144573 0
-0.0380303 -0.00668497 0
0.0367981 -1.06098e-05 0
0.0168193 0.00668773 0
-0.0380303 -0.00668497 0
-0.0236925 -0.00980825 0
0.0168193 0.00668773 0
-0.0148547 -0.00262052 0
0.0367981 -1.06098e-05 0
0.0168193 0.00668773 0
0.00882745 0.0443145 0
-0.0273835 0.0279169 0
0.0168193 0.00668773 0
-0.0148547 -0.00262052 0
-0.0273835 0.0279169 0
-0.0320126 0.0182518 0
0.00882745 0.0443145 0
-0.0273835 0.0279169 0
-0.0187379 0.0510394 0
0.0103471 0.0292588 0
-0.0273835 0.0279169 0
-0.0320126 0.0182518 0
0.0103471 0.0292588 0
0.0104943 0.0216814 0
-0.0187379 0.0510394 0
0.0103471 0.0292588 0
-0.0190353 0.00667128 0
0.000484351 0.0170184 0
0.0103471 0.0292588 0
0.0104943 0.0216814 0
0.000484351 0.0170184 0
0.0230913 0.00775865 0
-0.0190353 0.00667128 0
0.000484351 0.0170184 0
-0.0106887 -0.00374141 0
-0.00427429 -0.00291886 0
0.000484351 0.0170184 0
0.0230913 0.00775865 0
-0.00427429 -0.00291886 0
0.00094645 -0.00498421 0
0 0 0
0 0 0
-0.0236925 -0.00980825 0
-0.00832034 -0.00782755 0
0 0 0
0 0 0
-0.00832034 -0.00782755 0
0.00281141 -0.00494497 0
-0.0236925 -0.00980825 0
-0.00832034 -0.00782755 0
-0.0148547 -0.00262052 0
-0.0238917 -0.0215744 0
-0.00832034 -0.00782755 0
0.00281141 -0.00494497 0
-0.0238917 -0.0215744 0
-0.0109949 -0.0186785 0
-0.0148547 -0.00262052 0
-0.0238917 -0.0215744 0
-0.0320126 0.0182518 0
-0.0373632 -0.0255126 0
-0.0238917 -0.0215744 0
-0.0109949 -0.0186785 0
-0.0373632 -0.0255126 0
-0.031418 -0.0371383 0
-0.0320126 0.0182518 0
-0.0373632 -0.0255126 0
0.0104943 0.0216814 0
-0.00194403 -0.00857605 0
-0.0373632 -0.0255126 0
-0.031418 -0.0371383 0
-0.00194403 -0.00857605 0
-0.0205042 -0.0401166 0
0.0104943 0.0216814 0
-0.00194403 -0.00857605 0
0.0230913 0.00775865 0
0.030827 0.01136 0
-0.00194403 -0.00857605 0
-0.0205042 -0.0401166 0
0.030827 0.01136 0
0.0182463 -0.0234909 0
0.0230913 0.00775865 0
0.030827 0.01136 0
0.00094645 -0.00498421 0
0.00909971 0.00548885 0
0.030827 0.01136 0
0.0182463 -0.0234909 0
0.00909971 0.00548885 0
-0.00501571 0.0133104 0
0 0 0
0 0 0
0.00281141 -0.00494497 0
0.00364184 0.00416504 0
0 0 0
0 0 0
0.00364184 0.00416504 0
0 0 0
0.00281141 -0.00494497 0
0.00364184 0.00416504 0
-0.0109949 -0.0186785 0
-0.00158551 0.00675549 0
0.00364184 0.00416504 0
0 0 0
-0.00158551 0.00675549 0
0 0 0
-0.0109949 -0.0186785 0
-0.00158551 0.00675549 0
-0.031418 -0.0371383 0
-0.0115753 -0.00933017 0
-0.00158551 0.00675549 0
0 0 0
-0.0115753 -0.00933017 0
0 0 0
-0.031418 -0.0371383 0
-0.0115753 -0.00933017 0
-0.0205042 -0.0401166 0
-0.012791 -0.0391231 0
-0.0115753 -0.00933017 0
0 0 0
-0.012791 -0.0391231 0
0 0 0
-0.0205042 -0.0401166 0
-0.012791 -0.0391231 0
0.0182463 -0.0234909 0
0.00506248 -0.048567 0
-0.012791 -0.0391231 0
0 0 0
0.00506248 -0.048567 0
0 0 0
0.0182463 -0.0234909 0
0.00506248 -0.048567 0
-0.00501571 0.0133104 0
-0.0139375 -0.0600238 0
0.00506248 -0.048567 0
0 0 0
-0.0139375 -0.0600238 0
0 0 0
0.10804 0.00546806 0
0.127872 0.00521255 0
0.109263 0.00411963 0
0.126896 0.00445682 0
0.127872 0.00521255 0
0.212003 0.00213272 0
0.126896 0.00445682 0
0.207841 0.00146659 0
0.109263 0.00411963 0
0.126896 0.00445682 0
0.109939 0.00280916 0
0.126461 0.00257475 0
0.126896 0.00445682 0
0.207841 0.00146659 0
0.126461 0.00257475 0
0.2041 0.00054308 0
0.295987 0.000293631 0
-0.00539324 0.00422784 0
0.286198 0.000530562 0
0.0107398 0.00393695 0
-0.00539324 0.00422784 0
0.404965 1.34317e-09 0
0.0107398 0.00393695 0
0.38181 1.26237e-09 0
0.286198 0.000530562 0
0.0107398 0.00393695 0
0.277152 0.00105744 0
0.0251084 0.00364444 0
0.0107398 0.00393695 0
0.38181 1.26237e-09 0
0.0251084 0.00364444 0
0.360901 1.18171e-09 0
0.277152 0.00105744 0
0.0251084 0.00364444 0
0.268472 0.00153347 0
0.0379529 0.00345374 0
0.0251084 0.00364444 0
0.360901 1.18171e-09 0
0.0379529 0.00345374 0
0.341882 9.42407e-10 0
0.268472 0.00153347 0
0.0379529 0.00345374 0
0.260404 0.00198001 0
0.049267 0.00338818 0
0.0379529 0.00345374 0
0.341882 9.42407e-10 0
0.049267 0.00338818 0
0.324589 7.16595e-10 0
0.260404 0.00198001 0
0.049267 0.00338818 0
0.252888 0.00234083 0
0.0591396 0.00315064 0
0.049267 0.00338818 0
0.324589 7.16595e-10 0
0.0591396 0.00315064 0
0.308978 3.70441e-10 0
0.252888 0.00234083 0
0.0591396 0.00315064 0
0.245851 0.00259699 0
0.0677053 0.00304037 0
0.0591396 0.00315064 0
0.308978 3.70441e-10 0
0.0677053 0.00304037 0
0.294992 1.08951e-10 0
0.245851 0.00259699 0
0.0677053 0.00304037 0
0.239279 0.00278004 0
0.0751318 0.00282846 0
0.0677053 0.00304037 0
0.294992 1.08951e-10 0
0.0751318 0.00282846 0
0.282429 -3.4683e-10 0
0.239279 0.00278004 0
0.0751318 0.00282846 0
0.233114 0.00289002 0
0.0816316 0.00282813 0
0.0751318 0.00282846 0
0.282429 -3.4683e-10 0
0.0816316 0.00282813 0
0.271022 -6.5908e-10 0
0.233114 0.00289002 0
0.0816316 0.00282813 0
0.227311 0.00291666 0
0.0872981 0.00251673 0
0.0816316 0.00282813 0