# vtk DataFile Version 3.0
#This file was generated by the deal.II library on 2026/3/26 at 11:17:35
ASCII
DATASET UNSTRUCTURED_GRID

POINTS 3648 double
0 0 0
0.214286 0 0
0 0.25 0
0.214286 0.25 0
0 0.25 0
0.214286 0.25 0
0 0.5 0
0.214286 0.5 0
0.214286 0 0
0.428571 0 0
0.214286 0.25 0
0.428571 0.25 0
0.214286 0.25 0
0.428571 0.25 0
0.214286 0.5 0
0.428571 0.5 0
0.428571 0 0
0.642857 0 0
0.428571 0.25 0
0.642857 0.25 0
0.428571 0.25 0
0.642857 0.25 0
0.428571 0.5 0
0.642857 0.5 0
0.428571 0.5 0
0.642857 0.5 0
0.428571 0.75 0
0.642857 0.75 0
0.642857 0 0
0.857143 0 0
0.642857 0.25 0
0.857143 0.25 0
0.642857 0.25 0
0.857143 0.25 0
0.642857 0.5 0
0.857143 0.5 0
0.642857 0.5 0
0.857143 0.5 0
0.642857 0.75 0
0.857143 0.75 0
0.857143 0 0
1.07143 0 0
0.857143 0.25 0
1.07143 0.25 0
0.857143 0.25 0
1.07143 0.25 0
0.857143 0.5 0
1.07143 0.5 0
0.857143 0.5 0
1.07143 0.5 0
0.857143 0.75 0
1.07143 0.75 0
1.07143 0 0
1.28571 0 0
1.07143 0.25 0
1.28571 0.25 0
1.07143 0.25 0
1.28571 0.25 0
1.07143 0.5 0
1.28571 0.5 0
1.07143 0.5 0
1.28571 0.5 0
1.07143 0.75 0
1.28571 0.75 0
1.28571 0 0
1.5 0 0
1.28571 0.25 0
1.5 0.25 0
1.28571 0.25 0
1.5 0.25 0
1.28571 0.5 0
1.5 0.5 0
1.5 0 0
1.71429 0 0
1.5 0.25 0
1.71429 0.25 0
1.5 0.25 0
1.71429 0.25 0
1.5 0.5 0
1.71429 0.5 0
1.71429 0 0
1.92857 0 0
1.71429 0.25 0
1.92857 0.25 0
1.71429 0.25 0
1.92857 0.25 0
1.71429 0.5 0
1.92857 0.5 0
1.92857 0 0
2.14286 0 0
1.92857 0.25 0
2.14286 0.25 0
1.92857 0.25 0
2.14286 0.25 0
1.92857 0.5 0
2.14286 0.5 0
0 3 0
0 2.75 0
0.214286 3 0
0.214286 2.75 0
0.214286 3 0
0.214286 2.75 0
0.428571 3 0
0.428571 2.75 0
0.428571 3 0
0.428571 2.75 0
0.642857 3 0
0.642857 2.75 0
0.642857 3 0
0.642857 2.75 0
0.857143 3 0
0.857143 2.75 0
0.857143 3 0
0.857143 2.75 0
1.07143 3 0
1.07143 2.75 0
1.07143 3 0
1.07143 2.75 0
1.28571 3 0
1.28571 2.75 0
1.28571 3 0
1.28571 2.75 0
1.5 3 0
1.5 2.75 0
1.5 3 0
1.5 2.75 0
1.71429 3 0
1.71429 2.75 0
1.71429 3 0
1.71429 2.75 0
1.92857 3 0
1.92857 2.75 0
1.92857 3 0
1.92857 2.75 0
2.14286 3 0
2.14286 2.75 0
0 2.75 0
0 2.5 0
0.214286 2.75 0
0.214286 2.5 0
0.214286 2.75 0
0.214286 2.5 0
0.428571 2.75 0
0.428571 2.5 0
0.428571 2.75 0
0.428571 2.5 0
0.642857 2.75 0
0.642857 2.5 0
0.642857 2.75 0
0.642857 2.5 0
0.857143 2.75 0
0.857143 2.5 0
0.857143 2.75 0
0.857143 2.5 0
1.07143 2.75 0
1.07143 2.5 0
1.07143 2.75 0
1.07143 2.5 0
1.28571 2.75 0
1.28571 2.5 0
1.28571 2.75 0
1.28571 2.5 0
1.5 2.75 0
1.5 2.5 0
1.5 2.75 0
1.5 2.5 0
1.71429 2.75 0
1.71429 2.5 0
1.71429 2.75 0
1.71429 2.5 0
1.92857 2.75 0
1.92857 2.5 0
1.92857 2.75 0
1.92857 2.5 0
2.14286 2.75 0
2.14286 2.5 0
0.428571 2.5 0
0.428571 2.25 0
0.642857 2.5 0
0.642857 2.25 0
0.642857 2.5 0
0.642857 2.25 0
0.857143 2.5 0
0.857143 2.25 0
0.857143 2.5 0
0.857143 2.25 0
1.07143 2.5 0
1.07143 2.25 0
1.07143 2.5 0
1.07143 2.25 0
1.28571 2.5 0
1.28571 2.25 0
0.214286 0.75 0
0.321429 0.75 0
0.214286 0.875 0
0.321429 0.875 0
0.321429 0.75 0
0.428571 0.75 0
0.321429 0.875 0
0.428571 0.875 0
0.214286 0.875 0
0.321429 0.875 0
0.214286 1 0
0.321429 1 0
0.321429 0.875 0
0.428571 0.875 0
0.321429 1 0
0.428571 1 0
0.428571 0.75 0
0.535714 0.75 0
0.428571 0.875 0
0.535714 0.875 0
0.535714 0.75 0
0.642857 0.75 0
0.535714 0.875 0
0.642857 0.875 0
0.428571 0.875 0
0.535714 0.875 0
0.428571 1 0
0.535714 1 0
0.535714 0.875 0
0.642857 0.875 0
0.535714 1 0
0.642857 1 0
0.642857 0.75 0
0.75 0.75 0
0.642857 0.875 0
0.75 0.875 0
0.75 0.75 0
0.857143 0.75 0
0.75 0.875 0
0.857143 0.875 0
0.642857 0.875 0
0.75 0.875 0
0.642857 1 0
0.75 1 0
0.75 0.875 0
0.857143 0.875 0
0.75 1 0
0.857143 1 0
0.857143 0.75 0
0.964286 0.75 0
0.857143 0.875 0
0.964286 0.875 0
0.964286 0.75 0
1.07143 0.75 0
0.964286 0.875 0
1.07143 0.875 0
0.857143 0.875 0
0.964286 0.875 0
0.857143 1 0
0.964286 1 0
0.964286 0.875 0
1.07143 0.875 0
0.964286 1 0
1.07143 1 0
1.07143 0.75 0
1.17857 0.75 0
1.07143 0.875 0
1.17857 0.875 0
1.17857 0.75 0
1.28571 0.75 0
1.17857 0.875 0
1.28571 0.875 0
1.07143 0.875 0
1.17857 0.875 0
1.07143 1 0
1.17857 1 0
1.17857 0.875 0
1.28571 0.875 0
1.17857 1 0
1.28571 1 0
0.214286 2 0
0.214286 1.875 0
0.321429 2 0
0.321429 1.875 0
0.214286 1.875 0
0.214286 1.75 0
0.321429 1.875 0
0.321429 1.75 0
0.321429 2 0
0.321429 1.875 0
0.428571 2 0
0.428571 1.875 0
0.321429 1.875 0
0.321429 1.75 0
0.428571 1.875 0
0.428571 1.75 0
0.428571 2 0
0.428571 1.875 0
0.535714 2 0
0.535714 1.875 0
0.428571 1.875 0
0.428571 1.75 0
0.535714 1.875 0
0.535714 1.75 0
0.535714 2 0
0.535714 1.875 0
0.642857 2 0
0.642857 1.875 0
0.535714 1.875 0
0.535714 1.75 0
0.642857 1.875 0
0.642857 1.75 0
0.642857 2 0
0.642857 1.875 0
0.75 2 0
0.75 1.875 0
0.642857 1.875 0
0.642857 1.75 0
0.75 1.875 0
0.75 1.75 0
0.75 2 0
0.75 1.875 0
0.857143 2 0
0.857143 1.875 0
0.75 1.875 0
0.75 1.75 0
0.857143 1.875 0
0.857143 1.75 0
0.857143 2 0
0.857143 1.875 0
0.964286 2 0
0.964286 1.875 0
0.857143 1.875 0
0.857143 1.75 0
0.964286 1.875 0
0.964286 1.75 0
0.964286 2 0
0.964286 1.875 0
1.07143 2 0
1.07143 1.875 0
0.964286 1.875 0
0.964286 1.75 0
1.07143 1.875 0
1.07143 1.75 0
1.07143 2 0
1.07143 1.875 0
1.17857 2 0
1.17857 1.875 0
1.07143 1.875 0
1.07143 1.75 0
1.17857 1.875 0
1.17857 1.75 0
1.17857 2 0
1.17857 1.875 0
1.28571 2 0
1.28571 1.875 0
1.17857 1.875 0
1.17857 1.75 0
1.28571 1.875 0
1.28571 1.75 0
0.214286 1.25 0
0.214286 1.125 0
0.321429 1.25 0
0.321429 1.125 0
0.214286 1.125 0
0.214286 1 0
0.321429 1.125 0
0.321429 1 0
0.321429 1.25 0
0.321429 1.125 0
0.428571 1.25 0
0.428571 1.125 0
0.321429 1.125 0
0.321429 1 0
0.428571 1.125 0
0.428571 1 0
0.428571 1.25 0
0.428571 1.125 0
0.535714 1.25 0
0.535714 1.125 0
0.428571 1.125 0
0.428571 1 0
0.535714 1.125 0
0.535714 1 0
0.535714 1.25 0
0.535714 1.125 0
0.642857 1.25 0
0.642857 1.125 0
0.535714 1.125 0
0.535714 1 0
0.642857 1.125 0
0.642857 1 0
0.642857 1.25 0
0.642857 1.125 0
0.75 1.25 0
0.75 1.125 0
0.642857 1.125 0
0.642857 1 0
0.75 1.125 0
0.75 1 0
0.75 1.25 0
0.75 1.125 0
0.857143 1.25 0
0.857143 1.125 0
0.75 1.125 0
0.75 1 0
0.857143 1.125 0
0.857143 1 0
0.857143 1.25 0
0.857143 1.125 0
0.964286 1.25 0
0.964286 1.125 0
0.857143 1.125 0
0.857143 1 0
0.964286 1.125 0
0.964286 1 0
0.964286 1.25 0
0.964286 1.125 0
1.07143 1.25 0
1.07143 1.125 0
0.964286 1.125 0
0.964286 1 0
1.07143 1.125 0
1.07143 1 0
1.07143 1.25 0
1.07143 1.125 0
1.17857 1.25 0
1.17857 1.125 0
1.07143 1.125 0
1.07143 1 0
1.17857 1.125 0
1.17857 1 0
1.17857 1.25 0
1.17857 1.125 0
1.28571 1.25 0
1.28571 1.125 0
1.17857 1.125 0
1.17857 1 0
1.28571 1.125 0
1.28571 1 0
0.214286 2.25 0
0.214286 2.125 0
0.321429 2.25 0
0.321429 2.125 0
0.214286 2.125 0
0.214286 2 0
0.321429 2.125 0
0.321429 2 0
0.321429 2.25 0
0.321429 2.125 0
0.428571 2.25 0
0.428571 2.125 0
0.321429 2.125 0
0.321429 2 0
0.428571 2.125 0
0.428571 2 0
0.428571 2.25 0
0.428571 2.125 0
0.535714 2.25 0
0.535714 2.125 0
0.428571 2.125 0
0.428571 2 0
0.535714 2.125 0
0.535714 2 0
0.535714 2.25 0
0.535714 2.125 0
0.642857 2.25 0
0.642857 2.125 0
0.535714 2.125 0
0.535714 2 0
0.642857 2.125 0
0.642857 2 0
0.642857 2.25 0
0.642857 2.125 0
0.75 2.25 0
0.75 2.125 0
0.642857 2.125 0
0.642857 2 0
0.75 2.125 0
0.75 2 0
0.75 2.25 0
0.75 2.125 0
0.857143 2.25 0
0.857143 2.125 0
0.75 2.125 0
0.75 2 0
0.857143 2.125 0
0.857143 2 0
0.857143 2.25 0
0.857143 2.125 0
0.964286 2.25 0
0.964286 2.125 0
0.857143 2.125 0
0.857143 2 0
0.964286 2.125 0
0.964286 2 0
0.964286 2.25 0
0.964286 2.125 0
1.07143 2.25 0
1.07143 2.125 0
0.964286 2.125 0
0.964286 2 0
1.07143 2.125 0
1.07143 2 0
1.07143 2.25 0
1.07143 2.125 0
1.17857 2.25 0
1.17857 2.125 0
1.07143 2.125 0
1.07143 2 0
1.17857 2.125 0
1.17857 2 0
1.17857 2.25 0
1.17857 2.125 0
1.28571 2.25 0
1.28571 2.125 0
1.17857 2.125 0
1.17857 2 0
1.28571 2.125 0
1.28571 2 0
0 0.5 0
0.107143 0.5 0
0 0.625 0
0.107143 0.625 0
0.107143 0.5 0
0.214286 0.5 0
0.107143 0.625 0
0.214286 0.625 0
0 0.625 0
0.107143 0.625 0
0 0.75 0
0.107143 0.75 0
0.107143 0.625 0
0.214286 0.625 0
0.107143 0.75 0
0.214286 0.75 0
0.214286 0.5 0
0.321429 0.5 0
0.214286 0.625 0
0.321429 0.625 0
0.321429 0.5 0
0.428571 0.5 0
0.321429 0.625 0
0.428571 0.625 0
0.214286 0.625 0
0.321429 0.625 0
0.214286 0.75 0
0.321429 0.75 0
0.321429 0.625 0
0.428571 0.625 0
0.321429 0.75 0
0.428571 0.75 0
1.28571 0.5 0
1.39286 0.5 0
1.28571 0.625 0
1.39286 0.625 0
1.39286 0.5 0
1.5 0.5 0
1.39286 0.625 0
1.5 0.625 0
1.28571 0.625 0
1.39286 0.625 0
1.28571 0.75 0
1.39286 0.75 0
1.39286 0.625 0
1.5 0.625 0
1.39286 0.75 0
1.5 0.75 0
1.28571 0.75 0
1.39286 0.75 0
1.28571 0.875 0
1.39286 0.875 0
1.39286 0.75 0
1.5 0.75 0
1.39286 0.875 0
1.5 0.875 0
1.28571 0.875 0
1.39286 0.875 0
1.28571 1 0
1.39286 1 0
1.39286 0.875 0
1.5 0.875 0
1.39286 1 0
1.5 1 0
1.5 0.5 0
1.60714 0.5 0
1.5 0.625 0
1.60714 0.625 0
1.60714 0.5 0
1.71429 0.5 0
1.60714 0.625 0
1.71429 0.625 0
1.5 0.625 0
1.60714 0.625 0
1.5 0.75 0
1.60714 0.75 0
1.60714 0.625 0
1.71429 0.625 0
1.60714 0.75 0
1.71429 0.75 0
1.71429 0.5 0
1.82143 0.5 0
1.71429 0.625 0
1.82143 0.625 0
1.82143 0.5 0
1.92857 0.5 0
1.82143 0.625 0
1.92857 0.625 0
1.71429 0.625 0
1.82143 0.625 0
1.71429 0.75 0
1.82143 0.75 0
1.82143 0.625 0
1.92857 0.625 0
1.82143 0.75 0
1.92857 0.75 0
1.92857 0.5 0
2.03571 0.5 0
1.92857 0.625 0
2.03571 0.625 0
2.03571 0.5 0
2.14286 0.5 0
2.03571 0.625 0
2.14286 0.625 0
1.92857 0.625 0
2.03571 0.625 0
1.92857 0.75 0
2.03571 0.75 0
2.03571 0.625 0
2.14286 0.625 0
2.03571 0.75 0
2.14286 0.75 0
2.14286 0 0
2.25 0 0
2.14286 0.125 0
2.25 0.125 0
2.25 0 0
2.35714 0 0
2.25 0.125 0
2.35714 0.125 0
2.14286 0.125 0
2.25 0.125 0
2.14286 0.25 0
2.25 0.25 0
2.25 0.125 0
2.35714 0.125 0
2.25 0.25 0
2.35714 0.25 0
2.14286 0.25 0
2.25 0.25 0
2.14286 0.375 0
2.25 0.375 0
2.25 0.25 0
2.35714 0.25 0
2.25 0.375 0
2.35714 0.375 0
2.14286 0.375 0
2.25 0.375 0
2.14286 0.5 0
2.25 0.5 0
2.25 0.375 0
2.35714 0.375 0
2.25 0.5 0
2.35714 0.5 0
2.14286 0.5 0
2.25 0.5 0
2.14286 0.625 0
2.25 0.625 0
2.25 0.5 0
2.35714 0.5 0
2.25 0.625 0
2.35714 0.625 0
2.14286 0.625 0
2.25 0.625 0
2.14286 0.75 0
2.25 0.75 0
2.25 0.625 0
2.35714 0.625 0
2.25 0.75 0
2.35714 0.75 0
2.35714 0 0
2.46429 0 0
[...]
POINT_DATA 3648
VECTORS velocity double
0 0 0
0 0 0
0 0 0
-0.0115482 0.012996 0
0 0 0
-0.0115482 0.012996 0
0 0 0
-0.00159666 0.0284839 0
0 0 0
0 0 0
-0.0115482 0.012996 0
-0.0343745 0.0134137 0
-0.0115482 0.012996 0
-0.0343745 0.0134137 0
-0.00159666 0.0284839 0
-0.00181482 0.0251719 0
0 0 0
0 0 0
-0.0343745 0.0134137 0
-0.0525331 0.00816451 0
-0.0343745 0.0134137 0
-0.0525331 0.00816451 0
-0.00181482 0.0251719 0
-0.00276112 0.0187425 0
-0.00181482 0.0251719 0
-0.00276112 0.0187425 0
0.020676 0.0159815 0
0.0359584 0.0117388 0
0 0 0
0 0 0
-0.0525331 0.00816451 0
-0.0588799 -0.000424281 0
-0.0525331 0.00816451 0
-0.0588799 -0.000424281 0
-0.00276112 0.0187425 0
0.00316464 -0.0115896 0
-0.00276112 0.0187425 0
0.00316464 -0.0115896 0
0.0359584 0.0117388 0
0.0350087 -0.0102876 0
0 0 0
0 0 0
-0.0588799 -0.000424281 0
-0.0486873 -0.011138 0
-0.0588799 -0.000424281 0
-0.0486873 -0.011138 0
0.00316464 -0.0115896 0
0.00713269 -0.0163465 0
0.00316464 -0.0115896 0
0.00713269 -0.0163465 0
0.0350087 -0.0102876 0
0.0178099 -0.00125707 0
0 0 0
0 0 0
-0.0486873 -0.011138 0
-0.00778322 -0.0388558 0
-0.0486873 -0.011138 0
-0.00778322 -0.0388558 0
0.00713269 -0.0163465 0
-0.0201819 -0.0496634 0
0.00713269 -0.0163465 0
-0.0201819 -0.0496634 0
0.0178099 -0.00125707 0
0.00842086 -0.0225308 0
0 0 0
0 0 0
-0.00778322 -0.0388558 0
0.0724421 -0.0558853 0
-0.00778322 -0.0388558 0
0.0724421 -0.0558853 0
-0.0201819 -0.0496634 0
-0.0671165 -0.0821069 0
0 0 0
0 0 0
0.0724421 -0.0558853 0
0.0815177 0.045629 0
0.0724421 -0.0558853 0
0.0815177 0.045629 0
-0.0671165 -0.0821069 0
-0.0660152 0.0576897 0
0 0 0
0 0 0
0.0815177 0.045629 0
0.0279072 0.0166871 0
0.0815177 0.045629 0
0.0279072 0.0166871 0
-0.0660152 0.0576897 0
-0.0422601 0.0402509 0
0 0 0
0 0 0
0.0279072 0.0166871 0
-0.0105743 0.0269908 0
0.0279072 0.0166871 0
-0.0105743 0.0269908 0
-0.0422601 0.0402509 0
-0.0116887 0.0122181 0
0 0 0
0 0 0
0 0 0
-0.0116467 -0.0131053 0
0 0 0
-0.0116467 -0.0131053 0
0 0 0
-0.0346244 -0.0134772 0
0 0 0
-0.0346244 -0.0134772 0
0 0 0
-0.0527561 -0.00807991 0
0 0 0
-0.0527561 -0.00807991 0
0 0 0
-0.0589289 0.000532845 0
0 0 0
-0.0589289 0.000532845 0
0 0 0
-0.0486608 0.0111203 0
0 0 0
-0.0486608 0.0111203 0
0 0 0
-0.00769079 0.0389702 0
0 0 0
-0.00769079 0.0389702 0
0 0 0
0.0725742 0.05582 0
0 0 0
0.0725742 0.05582 0
0 0 0
0.0815959 -0.0456152 0
0 0 0
0.0815959 -0.0456152 0
0 0 0
0.0280443 -0.0166442 0
0 0 0
0.0280443 -0.0166442 0
0 0 0
-0.0104941 -0.0270918 0
0 0 0
0 0 0
-0.0116467 -0.0131053 0
-0.0016132 -0.0287314 0
-0.0116467 -0.0131053 0
-0.0016132 -0.0287314 0
-0.0346244 -0.0134772 0
-0.00179681 -0.025238 0
-0.0346244 -0.0134772 0
-0.00179681 -0.025238 0
-0.0527561 -0.00807991 0
-0.00269871 -0.0185695 0
-0.0527561 -0.00807991 0
-0.00269871 -0.0185695 0
-0.0589289 0.000532845 0
0.00327412 0.011879 0
-0.0589289 0.000532845 0
0.00327412 0.011879 0
-0.0486608 0.0111203 0
0.00730787 0.0163076 0
-0.0486608 0.0111203 0
0.00730787 0.0163076 0
-0.00769079 0.0389702 0
-0.0201769 0.0496761 0
-0.00769079 0.0389702 0
-0.0201769 0.0496761 0
0.0725742 0.05582 0
-0.0671525 0.0821179 0
0.0725742 0.05582 0
-0.0671525 0.0821179 0
0.0815959 -0.0456152 0
-0.0659904 -0.0577181 0
0.0815959 -0.0456152 0
-0.0659904 -0.0577181 0
0.0280443 -0.0166442 0
-0.0422654 -0.0401423 0
0.0280443 -0.0166442 0
-0.0422654 -0.0401423 0
-0.0104941 -0.0270918 0
-0.0116967 -0.0124446 0
-0.00179681 -0.025238 0
0.0208274 -0.016058 0
-0.00269871 -0.0185695 0
0.0360495 -0.0115745 0
-0.00269871 -0.0185695 0
0.0360495 -0.0115745 0
0.00327412 0.011879 0
0.0349641 0.0104691 0
0.00327412 0.011879 0
0.0349641 0.0104691 0
0.00730787 0.0163076 0
0.0175968 0.00118765 0
0.00730787 0.0163076 0
0.0175968 0.00118765 0
-0.0201769 0.0496761 0
0.00828699 0.0224762 0
0.00659945 0.0210866 0
0.015274 0.0227762 0
0.0034302 0.0117797 0
0.0106847 0.0133525 0
0.015274 0.0227762 0
0.020676 0.0159815 0
0.0106847 0.0133525 0
0.0195778 0.00891592 0
0.0034302 0.0117797 0
0.0106847 0.0133525 0
0.0520837 -0.00337512 0
0.0741742 -0.00501715 0
0.0106847 0.0133525 0
0.0195778 0.00891592 0
0.0741742 -0.00501715 0
0.093101 -0.00490294 0
0.020676 0.0159815 0
0.0277869 0.0133748 0
0.0195778 0.00891592 0
0.0250073 0.00605957 0
0.0277869 0.0133748 0
0.0359584 0.0117388 0
0.0250073 0.00605957 0
0.0298084 0.00425859 0
0.0195778 0.00891592 0
0.0250073 0.00605957 0
0.093101 -0.00490294 0
0.109477 -0.00575654 0
0.0250073 0.00605957 0
0.0298084 0.00425859 0
0.109477 -0.00575654 0
0.123422 -0.0063433 0
0.0359584 0.0117388 0
0.0400278 0.00159003 0
0.0298084 0.00425859 0
0.0332512 0.000815991 0
0.0400278 0.00159003 0
0.0350087 -0.0102876 0
0.0332512 0.000815991 0
0.0329554 -0.00265698 0
0.0298084 0.00425859 0
0.0332512 0.000815991 0
0.123422 -0.0063433 0
0.135575 -0.00748149 0
0.0332512 0.000815991 0
0.0329554 -0.00265698 0
0.135575 -0.00748149 0
0.146466 -0.007503 0
0.0350087 -0.0102876 0
0.0259817 -0.00687266 0
0.0329554 -0.00265698 0
0.0319157 -0.00237769 0
0.0259817 -0.00687266 0
0.0178099 -0.00125707 0
0.0319157 -0.00237769 0
0.0356495 -0.000331362 0
0.0329554 -0.00265698 0
0.0319157 -0.00237769 0
0.146466 -0.007503 0
0.156155 -0.00855249 0
0.0319157 -0.00237769 0
0.0356495 -0.000331362 0
0.156155 -0.00855249 0
0.164311 -0.00900611 0
0.0178099 -0.00125707 0
0.0115069 -0.0102298 0
0.0356495 -0.000331362 0
0.0386611 -0.00698867 0
0.0115069 -0.0102298 0
0.00842086 -0.0225308 0
0.0386611 -0.00698867 0
0.0311842 -0.0129136 0
0.0356495 -0.000331362 0
0.0386611 -0.00698867 0
0.164311 -0.00900611 0
0.171028 -0.0104158 0
0.0386611 -0.00698867 0
0.0311842 -0.0129136 0
0.171028 -0.0104158 0
0.176882 -0.00783973 0
0.0520796 0.00337937 0
0.24081 0.0132689 0
0.0741917 0.00501167 0
0.233751 0.0122785 0
0.24081 0.0132689 0
0.157824 0.00658485 0
0.233751 0.0122785 0
0.153711 0.00622767 0
0.0741917 0.00501167 0
0.233751 0.0122785 0
0.0931424 0.00489824 0
0.227133 0.0112115 0
0.233751 0.0122785 0
0.153711 0.00622767 0
0.227133 0.0112115 0
0.150057 0.00566681 0
0.0931424 0.00489824 0
0.227133 0.0112115 0
0.109544 0.00576111 0
0.220847 0.0102125 0
0.227133 0.0112115 0
0.150057 0.00566681 0
0.220847 0.0102125 0
0.146858 0.0052889 0
0.109544 0.00576111 0
0.220847 0.0102125 0
0.123519 0.00636072 0
0.214801 0.00997296 0
0.220847 0.0102125 0
0.146858 0.0052889 0
0.214801 0.00997296 0
0.143968 0.00513931 0
0.123519 0.00636072 0
0.214801 0.00997296 0
0.135698 0.0075199 0
0.208771 0.00953754 0
0.214801 0.00997296 0
0.143968 0.00513931 0
0.208771 0.00953754 0
0.141344 0.00495417 0
0.135698 0.0075199 0
0.208771 0.00953754 0
0.146611 0.00754182 0
0.202585 0.00948115 0
0.208771 0.00953754 0
0.141344 0.00495417 0
0.202585 0.00948115 0
0.13895 0.00478564 0
0.146611 0.00754182 0
0.202585 0.00948115 0
0.156322 0.00858992 0
0.196225 0.00904403 0
0.202585 0.00948115 0
0.13895 0.00478564 0
0.196225 0.00904403 0
0.136755 0.00456296 0
0.156322 0.00858992 0
0.196225 0.00904403 0
0.164497 0.00904147 0
0.189861 0.00946488 0
0.196225 0.00904403 0
0.136755 0.00456296 0
0.189861 0.00946488 0
0.134665 0.00477322 0
0.164497 0.00904147 0
0.189861 0.00946488 0
0.171225 0.0104561 0
0.18339 0.00881384 0
0.189861 0.00946488 0
0.134665 0.00477322 0
0.18339 0.00881384 0
0.132751 0.00411399 0
0.171225 0.0104561 0
0.18339 0.00881384 0
0.177085 0.00786756 0
0.176875 0.00761454 0
0.18339 0.00881384 0
0.132751 0.00411399 0
0.176875 0.00761454 0
0.131218 0.00335966 0
0.158058 -0.00659411 0
0.240737 -0.0132681 0
0.153938 -0.00623636 0
0.233699 -0.0122823 0
0.240737 -0.0132681 0
0.0520837 -0.00337512 0
0.233699 -0.0122823 0
0.0741742 -0.00501715 0
0.153938 -0.00623636 0
0.233699 -0.0122823 0
0.150276 -0.0056722 0
0.227098 -0.0112127 0
0.233699 -0.0122823 0
0.0741742 -0.00501715 0
0.227098 -0.0112127 0
0.093101 -0.00490294 0
0.150276 -0.0056722 0
0.227098 -0.0112127 0
0.14707 -0.00528994 0
0.220831 -0.010207 0
0.227098 -0.0112127 0
0.093101 -0.00490294 0
0.220831 -0.010207 0
0.109477 -0.00575654 0
0.14707 -0.00528994 0
0.220831 -0.010207 0
0.144175 -0.00513584 0
0.21481 -0.00995567 0
0.220831 -0.010207 0
0.109477 -0.00575654 0
0.21481 -0.00995567 0
0.123422 -0.0063433 0
0.144175 -0.00513584 0
0.21481 -0.00995567 0
0.141548 -0.00494701 0
0.208814 -0.00951369 0
0.21481 -0.00995567 0
0.123422 -0.0063433 0
0.208814 -0.00951369 0
0.135575 -0.00748149 0
0.141548 -0.00494701 0
0.208814 -0.00951369 0
0.13915 -0.0047773 0
0.202666 -0.00945352 0
0.208814 -0.00951369 0
0.135575 -0.00748149 0
0.202666 -0.00945352 0
0.146466 -0.007503 0
0.13915 -0.0047773 0
0.202666 -0.00945352 0
0.13695 -0.00455469 0
0.196345 -0.0090206 0
0.202666 -0.00945352 0
0.146466 -0.007503 0
0.196345 -0.0090206 0
0.156155 -0.00855249 0
0.13695 -0.00455469 0
0.196345 -0.0090206 0
0.134851 -0.00476347 0
0.190019 -0.00944146 0
0.196345 -0.0090206 0
0.156155 -0.00855249 0
0.190019 -0.00944146 0
0.164311 -0.00900611 0
0.134851 -0.00476347 0
0.190019 -0.00944146 0
0.132927 -0.00410996 0
0.183582 -0.00879738 0
0.190019 -0.00944146 0
0.164311 -0.00900611 0
0.183582 -0.00879738 0
0.171028 -0.0104158 0
0.132927 -0.00410996 0
0.183582 -0.00879738 0
0.131382 -0.00335738 0
0.177102 -0.00760156 0
0.183582 -0.00879738 0
0.171028 -0.0104158 0
0.177102 -0.00760156 0
0.176882 -0.00783973 0
0.00670792 -0.0212739 0
0.00347581 -0.0118738 0
0.0154224 -0.022913 0
0.0108376 -0.0134117 0
0.00347581 -0.0118738 0
0.0520796 0.00337937 0
0.0108376 -0.0134117 0
0.0741917 0.00501167 0
0.0154224 -0.022913 0
0.0108376 -0.0134117 0
0.0208274 -0.016058 0
0.0198029 -0.00898297 0
0.0108376 -0.0134117 0
0.0741917 0.00501167 0
0.0198029 -0.00898297 0
0.0931424 0.00489824 0
0.0208274 -0.016058 0
0.0198029 -0.00898297 0
0.0278917 -0.0133322 0
0.0252557 -0.00605404 0
0.0198029 -0.00898297 0
0.0931424 0.00489824 0
0.0252557 -0.00605404 0
0.109544 0.00576111 0
0.0278917 -0.0133322 0
0.0252557 -0.00605404 0
0.0360495 -0.0115745 0
0.0299671 -0.00417721 0
0.0252557 -0.00605404 0
0.109544 0.00576111 0
0.0299671 -0.00417721 0
0.123519 0.00636072 0
0.0360495 -0.0115745 0
0.0299671 -0.00417721 0
0.0400877 -0.0014189 0
0.0332904 -0.000734985 0
0.0299671 -0.00417721 0
0.123519 0.00636072 0
0.0332904 -0.000734985 0
0.135698 0.0075199 0
0.0400877 -0.0014189 0
0.0332904 -0.000734985 0
0.0349641 0.0104691 0
0.0329158 0.00271857 0
0.0332904 -0.000734985 0
0.135698 0.0075199 0
0.0329158 0.00271857 0
0.146611 0.00754182 0
0.0349641 0.0104691 0
0.0329158 0.00271857 0
0.025824 0.00694043 0
0.0318428 0.0024015 0
0.0329158 0.00271857 0
0.146611 0.00754182 0
0.0318428 0.0024015 0
0.156322 0.00858992 0
0.025824 0.00694043 0
0.0318428 0.0024015 0
0.0175968 0.00118765 0
0.0356221 0.000302214 0
0.0318428 0.0024015 0
0.156322 0.00858992 0
0.0356221 0.000302214 0
0.164497 0.00904147 0
0.0175968 0.00118765 0
0.0356221 0.000302214 0
0.0112998 0.0101494 0
0.03872 0.00697973 0
0.0356221 0.000302214 0
0.164497 0.00904147 0
0.03872 0.00697973 0
0.171225 0.0104561 0
0.0112998 0.0101494 0
0.03872 0.00697973 0
0.00828699 0.0224762 0
0.0312914 0.0129288 0
0.03872 0.00697973 0
0.171225 0.0104561 0
0.0312914 0.0129288 0
0.177085 0.00786756 0
0 0 0
-0.000360792 0.014596 0
0 0 0
0.00118456 0.01388 0
-0.000360792 0.014596 0
-0.00159666 0.0284839 0
0.00118456 0.01388 0
0.00273741 0.0290099 0
0 0 0
0.00118456 0.01388 0
0 0 0
9.4164e-05 0.0126651 0
0.00118456 0.01388 0
0.00273741 0.0290099 0
9.4164e-05 0.0126651 0
0.00659945 0.0210866 0
-0.00159666 0.0284839 0
-0.00248765 0.0267718 0
0.00273741 0.0290099 0
0.00397638 0.0260916 0
-0.00248765 0.0267718 0
-0.00181482 0.0251719 0
0.00397638 0.0260916 0
0.00672253 0.0220724 0
0.00273741 0.0290099 0
0.00397638 0.0260916 0
0.00659945 0.0210866 0
0.015274 0.0227762 0
0.00397638 0.0260916 0
0.00672253 0.0220724 0
0.015274 0.0227762 0
0.020676 0.0159815 0
-0.0201819 -0.0496634 0
-0.0426914 -0.0675236 0
-0.00939459 -0.0301003 0
-0.0302604 -0.0365444 0
-0.0426914 -0.0675236 0
-0.0671165 -0.0821069 0
-0.0302604 -0.0365444 0
-0.061367 -0.0486227 0
-0.00939459 -0.0301003 0
-0.0302604 -0.0365444 0
0.00842086 -0.0225308 0
-0.00371274 -0.00520666 0
-0.0302604 -0.0365444 0
-0.061367 -0.0486227 0
-0.00371274 -0.00520666 0
-0.0374737 -0.00482751 0
0.00842086 -0.0225308 0
-0.00371274 -0.00520666 0
0.0311842 -0.0129136 0
0.0291878 0.00133195 0
-0.00371274 -0.00520666 0
-0.0374737 -0.00482751 0
0.0291878 0.00133195 0
0.0460122 0.00824028 0
0.0311842 -0.0129136 0
0.0291878 0.00133195 0
0.176882 -0.00783973 0
0.181363 -0.00716009 0
0.0291878 0.00133195 0
0.0460122 0.00824028 0
0.181363 -0.00716009 0
0.183084 -0.00478739 0
-0.0671165 -0.0821069 0
-0.0800127 -0.0103049 0
-0.061367 -0.0486227 0
-0.0756129 -0.0109695 0
-0.0800127 -0.0103049 0
-0.0660152 0.0576897 0
-0.0756129 -0.0109695 0
-0.0622325 0.0259307 0
-0.061367 -0.0486227 0
-0.0756129 -0.0109695 0
-0.0374737 -0.00482751 0
-0.0427243 -0.031136 0
-0.0756129 -0.0109695 0
-0.0622325 0.0259307 0
-0.0427243 -0.031136 0
-0.0386478 0.0249821 0
-0.0660152 0.0576897 0
-0.0457982 0.0483802 0
-0.0622325 0.0259307 0
-0.047821 0.0396411 0
-0.0457982 0.0483802 0
-0.0422601 0.0402509 0
-0.047821 0.0396411 0
-0.0328516 0.0273187 0
-0.0622325 0.0259307 0
-0.047821 0.0396411 0
-0.0386478 0.0249821 0
-0.0420911 0.0281841 0
-0.047821 0.0396411 0
-0.0328516 0.0273187 0
-0.0420911 0.0281841 0
-0.0224251 -0.00154166 0
-0.0422601 0.0402509 0
-0.0373067 0.0271001 0
-0.0328516 0.0273187 0
-0.00167904 -0.00222855 0
-0.0373067 0.0271001 0
-0.0116887 0.0122181 0
-0.00167904 -0.00222855 0
0.0134862 -0.00653534 0
-0.0328516 0.0273187 0
-0.00167904 -0.00222855 0
-0.0224251 -0.00154166 0
-0.0230082 -0.00880623 0
-0.00167904 -0.00222855 0
0.0134862 -0.00653534 0
-0.0230082 -0.00880623 0
-0.029581 -0.00967988 0
0 0 0
0 0 0
-0.00316064 0.00669479 0
-0.0382517 0.0340947 0
0 0 0
0 0 0
-0.0382517 0.0340947 0
-0.0375824 -0.0337306 0
-0.00316064 0.00669479 0
-0.0382517 0.0340947 0
-0.0105743 0.0269908 0
0.0124973 0.027733 0
-0.0382517 0.0340947 0
-0.0375824 -0.0337306 0
0.0124973 0.027733 0
0.0143578 -0.0295667 0
-0.0105743 0.0269908 0
0.0124973 0.027733 0
-0.0114197 0.0369399 0
0.00709283 -0.0296302 0
0.0124973 0.027733 0
0.0143578 -0.0295667 0
0.00709283 -0.0296302 0
-0.00363524 0.0374028 0
-0.0114197 0.0369399 0
0.00709283 -0.0296302 0
-0.0116887 0.0122181 0
-0.00639078 -0.0308259 0
0.00709283 -0.0296302 0
-0.00363524 0.0374028 0
-0.00639078 -0.0308259 0
-0.0206114 0.0668317 0
-0.0116887 0.0122181 0
-0.00639078 -0.0308259 0
0.0134862 -0.00653534 0
-0.00997939 0.00866053 0
-0.00639078 -0.0308259 0
-0.0206114 0.0668317 0
-0.00997939 0.00866053 0
-0.0206699 0.055864 0
0.0134862 -0.00653534 0
-0.00997939 0.00866053 0
-0.029581 -0.00967988 0
-0.0111653 0.0175847 0
-0.00997939 0.00866053 0
-0.0206699 0.055864 0
-0.0111653 0.0175847 0
0.00998323 0.0349335 0
0 0 0
0 0 0
-0.0375824 -0.0337306 0
-0.0184628 0.0103187 0
0 0 0
0 0 0
-0.0184628 0.0103187 0
-0.0233321 -0.00374282 0
-0.0375824 -0.0337306 0
-0.0184628 0.0103187 0
0.0143578 -0.0295667 0
-0.0293833 0.0337027 0
-0.0184628 0.0103187 0
-0.0233321 -0.00374282 0
-0.0293833 0.0337027 0
-0.0442711 -0.00238883 0
0.0143578 -0.0295667 0
-0.0293833 0.0337027 0
-0.00363524 0.0374028 0
-0.0283837 0.0465084 0
-0.0293833 0.0337027 0
-0.0442711 -0.00238883 0
-0.0283837 0.0465084 0
-0.0267679 0.00117438 0
-0.00363524 0.0374028 0
-0.0283837 0.0465084 0
-0.0206114 0.0668317 0
-0.00351059 0.0259083 0
-0.0283837 0.0465084 0
-0.0267679 0.00117438 0
-0.00351059 0.0259083 0
0.0179392 -0.00501854 0
-0.0206114 0.0668317 0
-0.00351059 0.0259083 0
-0.0206699 0.055864 0
-0.0160665 0.0114291 0
-0.00351059 0.0259083 0
0.0179392 -0.00501854 0
-0.0160665 0.0114291 0
-0.0158962 -0.0156046 0
-0.0206699 0.055864 0
-0.0160665 0.0114291 0
0.00998323 0.0349335 0
0.0206685 0.0141054 0
-0.0160665 0.0114291 0
-0.0158962 -0.0156046 0
0.0206685 0.0141054 0
0.00598757 -0.00145818 0
0 0 0
0 0 0
-0.0233321 -0.00374282 0
-0.0171066 -0.00409398 0
0 0 0
0 0 0
-0.0171066 -0.00409398 0
-0.0041285 -0.0107718 0
-0.0233321 -0.00374282 0
-0.0171066 -0.00409398 0
-0.0442711 -0.00238883 0
-0.0422422 -0.0157651 0
-0.0171066 -0.00409398 0
-0.0041285 -0.0107718 0
-0.0422422 -0.0157651 0
-0.0286431 -0.0295782 0
-0.0442711 -0.00238883 0
-0.0422422 -0.0157651 0
-0.0267679 0.00117438 0
-0.0303276 -0.0178941 0
-0.0422422 -0.0157651 0
-0.0286431 -0.0295782 0
-0.0303276 -0.0178941 0
-0.0309763 -0.0424966 0
-0.0267679 0.00117438 0
-0.0303276 -0.0178941 0
0.0179392 -0.00501854 0
0.0100955 0.00114019 0
-0.0303276 -0.0178941 0
-0.0309763 -0.0424966 0
0.0100955 0.00114019 0
-0.0107913 -0.0364832 0
0.0179392 -0.00501854 0
0.0100955 0.00114019 0
-0.0158962 -0.0156046 0
-0.00401273 0.00698485 0
0.0100955 0.00114019 0
-0.0107913 -0.0364832 0
-0.00401273 0.00698485 0
-0.000679545 -0.0218875 0
-0.0158962 -0.0156046 0
-0.00401273 0.00698485 0
0.00598757 -0.00145818 0
0.00177927 -0.0168165 0
-0.00401273 0.00698485 0
-0.000679545 -0.0218875 0
0.00177927 -0.0168165 0
0.00284596 -0.00343834 0
0 0 0
0 0 0
-0.0041285 -0.0107718 0
0.00263567 0.00290001 0
0 0 0
0 0 0
0.00263567 0.00290001 0
0 0 0
-0.0041285 -0.0107718 0
0.00263567 0.00290001 0
-0.0286431 -0.0295782 0
-0.0107713 -0.00688051 0
0.00263567 0.00290001 0
0 0 0
-0.0107713 -0.00688051 0
0 0 0
-0.0286431 -0.0295782 0
-0.0107713 -0.00688051 0
-0.0309763 -0.0424966 0
-0.0132925 -0.0355064 0
-0.0107713 -0.00688051 0
0 0 0
-0.0132925 -0.0355064 0
0 0 0
-0.0309763 -0.0424966 0
-0.0132925 -0.0355064 0
-0.0107913 -0.0364832 0
-0.00997551 -0.0629393 0
-0.0132925 -0.0355064 0
0 0 0
-0.00997551 -0.0629393 0
0 0 0
-0.0107913 -0.0364832 0
-0.00997551 -0.0629393 0
-0.000679545 -0.0218875 0
-0.00205767 -0.0771236 0
-0.00997551 -0.0629393 0
0 0 0
-0.00205767 -0.0771236 0
0 0 0
-0.000679545 -0.0218875 0
-0.00205767 -0.0771236 0
0.00284596 -0.00343834 0
-0.0052844 -0.0856964 0
-0.00205767 -0.0771236 0
0 0 0
-0.0052844 -0.0856964 0
0 0 0
0.177085 0.00786756 0
0.176875 0.00761454 0
0.181569 0.00718909 0
0.171393 0.00576249 0
0.176875 0.00761454 0
0.131218 0.00335966 0
0.171393 0.00576249 0
0.130054 0.00261396 0
0.181569 0.00718909 0
0.171393 0.00576249 0
0.183282 0.0048018 0
0.168085 0.00375984 0
0.171393 0.00576249 0
0.130054 0.00261396 0
0.168085 0.00375984 0
0.128932 0.00184628 0
0.165893 0.00680329 0
0.107334 0.00597907 0
0.161854 0.00665345 0
0.109912 0.00578514 0
0.107334 0.00597907 0
0.227719 2.82908e-06 0
0.109912 0.00578514 0
0.21512 2.67444e-06 0
0.161854 0.00665345 0
0.109912 0.00578514 0
0.157824 0.00658485 0
0.112054 0.00528805 0
0.109912 0.00578514 0
0.21512 2.67444e-06 0
0.112054 0.00528805 0
0.20362 2.70269e-06 0
0.157824 0.00658485 0
0.112054 0.00528805 0
0.153711 0.00622767 0
0.114021 0.00503758 0
0.112054 0.00528805 0
0.20362 2.70269e-06 0
0.114021 0.00503758 0
0.193026 2.75062e-06 0
0.153711 0.00622767 0
0.114021 0.00503758 0
0.150057 0.00566681 0
0.115729 0.00456049 0
0.114021 0.00503758 0
0.193026 2.75062e-06 0
0.115729 0.00456049 0
0.183329 3.46215e-06 0
0.150057 0.00566681 0
0.115729 0.00456049 0
0.146858 0.0052889 0
0.117151 0.00432725 0
0.115729 0.00456049 0
0.183329 3.46215e-06 0
0.117151 0.00432725 0
0.174545 4.18016e-06 0
0.146858 0.0052889 0
0.117151 0.00432725 0
0.143968 0.00513931 0
0.118254 0.00392171 0
0.117151 0.00432725 0
0.174545 4.18016e-06 0
0.118254 0.00392171 0
0.166673 4.89754e-06 0
0.143968 0.00513931 0
0.118254 0.00392171 0
0.141344 0.00495417 0
0.118996 0.00386625 0
0.118254 0.00392171 0
0.166673 4.89754e-06 0
0.118996 0.00386625 0
0.159619 5.60035e-06 0
0.141344 0.00495417 0
0.118996 0.00386625 0
0.13895 0.00478564 0
0.119388 0.00344988 0
0.118996 0.00386625 0
0.159619 5.60035e-06 0
0.119388 0.00344988 0
0.153245 5.68446e-06 0
0.13895 0.00478564 0
0.119388 0.00344988 0
0.136755 0.00456296 0
0.11943 0.00346794 0
0.119388 0.00344988 0
0.153245 5.68446e-06 0
0.11943 0.00346794 0
0.147535 6.91297e-06 0
0.136755 0.00456296 0
0.11943 0.00346794 0
0.134665 0.00477322 0
0.119187 0.00310572 0
0.11943 0.00346794 0
0.147535 6.91297e-06 0
0.119187 0.00310572 0
0.142498 6.72038e-06 0
0.134665 0.00477322 0
0.119187 0.00310572 0
0.132751 0.00411399 0
0.118812 0.00310475 0
0.119187 0.00310572 0
0.142498 6.72038e-06 0
0.118812 0.00310475 0
0.137984 4.93494e-06 0
0.132751 0.00411399 0
0.118812 0.00310475 0
0.131218 0.00335966 0
0.118481 0.00237265 0