# vtk DataFile Version 3.0
#This file was generated by the deal.II library on 2026/3/26 at 11:22:27
ASCII
DATASET UNSTRUCTURED_GRID

POINTS 3648 double
0 0 0
0.214286 0 0
0 0.25 0
0.214286 0.25 0
0 0.25 0
0.214286 0.25 0
0 0.5 0
0.214286 0.5 0
0.214286 0 0
0.428571 0 0
0.214286 0.25 0
0.428571 0.25 0
0.214286 0.25 0
0.428571 0.25 0
0.214286 0.5 0
0.428571 0.5 0
0.428571 0 0
0.642857 0 0
0.428571 0.25 0
0.642857 0.25 0
0.428571 0.25 0
0.642857 0.25 0
0.428571 0.5 0
0.642857 0.5 0
0.428571 0.5 0
0.642857 0.5 0
0.428571 0.75 0
0.642857 0.75 0
0.642857 0 0
0.857143 0 0
0.642857 0.25 0
0.857143 0.25 0
0.642857 0.25 0
0.857143 0.25 0
0.642857 0.5 0
0.857143 0.5 0
0.642857 0.5 0
0.857143 0.5 0
0.642857 0.75 0
0.857143 0.75 0
0.857143 0 0
1.07143 0 0
0.857143 0.25 0
1.07143 0.25 0
0.857143 0.25 0
1.07143 0.25 0
0.857143 0.5 0
1.07143 0.5 0
0.857143 0.5 0
1.07143 0.5 0
0.857143 0.75 0
1.07143 0.75 0
1.07143 0 0
1.28571 0 0
1.07143 0.25 0
1.28571 0.25 0
1.07143 0.25 0
1.28571 0.25 0
1.07143 0.5 0
1.28571 0.5 0
1.07143 0.5 0
1.28571 0.5 0
1.07143 0.75 0
1.28571 0.75 0
1.28571 0 0
1.5 0 0
1.28571 0.25 0
1.5 0.25 0
1.28571 0.25 0
1.5 0.25 0
1.28571 0.5 0
1.5 0.5 0
1.5 0 0
1.71429 0 0
1.5 0.25 0
1.71429 0.25 0
1.5 0.25 0
1.71429 0.25 0
1.5 0.5 0
1.71429 0.5 0
1.71429 0 0
1.92857 0 0
1.71429 0.25 0
1.92857 0.25 0
1.71429 0.25 0
1.92857 0.25 0
1.71429 0.5 0
1.92857 0.5 0
1.92857 0 0
2.14286 0 0
1.92857 0.25 0
2.14286 0.25 0
1.92857 0.25 0
2.14286 0.25 0
1.92857 0.5 0
2.14286 0.5 0
0 3 0
0 2.75 0
0.214286 3 0
0.214286 2.75 0
0.214286 3 0
0.214286 2.75 0
0.428571 3 0
0.428571 2.75 0
0.428571 3 0
0.428571 2.75 0
0.642857 3 0
0.642857 2.75 0
0.642857 3 0
0.642857 2.75 0
0.857143 3 0
0.857143 2.75 0
0.857143 3 0
0.857143 2.75 0
1.07143 3 0
1.07143 2.75 0
1.07143 3 0
1.07143 2.75 0
1.28571 3 0
1.28571 2.75 0
1.28571 3 0
1.28571 2.75 0
1.5 3 0
1.5 2.75 0
1.5 3 0
1.5 2.75 0
1.71429 3 0
1.71429 2.75 0
1.71429 3 0
1.71429 2.75 0
1.92857 3 0
1.92857 2.75 0
1.92857 3 0
1.92857 2.75 0
2.14286 3 0
2.14286 2.75 0
0 2.75 0
0 2.5 0
0.214286 2.75 0
0.214286 2.5 0
0.214286 2.75 0
0.214286 2.5 0
0.428571 2.75 0
0.428571 2.5 0
0.428571 2.75 0
0.428571 2.5 0
0.642857 2.75 0
0.642857 2.5 0
0.642857 2.75 0
0.642857 2.5 0
0.857143 2.75 0
0.857143 2.5 0
0.857143 2.75 0
0.857143 2.5 0
1.07143 2.75 0
1.07143 2.5 0
1.07143 2.75 0
1.07143 2.5 0
1.28571 2.75 0
1.28571 2.5 0
1.28571 2.75 0
1.28571 2.5 0
1.5 2.75 0
1.5 2.5 0
1.5 2.75 0
1.5 2.5 0
1.71429 2.75 0
1.71429 2.5 0
1.71429 2.75 0
1.71429 2.5 0
1.92857 2.75 0
1.92857 2.5 0
1.92857 2.75 0
1.92857 2.5 0
2.14286 2.75 0
2.14286 2.5 0
0.428571 2.5 0
0.428571 2.25 0
0.642857 2.5 0
0.642857 2.25 0
0.642857 2.5 0
0.642857 2.25 0
0.857143 2.5 0
0.857143 2.25 0
0.857143 2.5 0
0.857143 2.25 0
1.07143 2.5 0
1.07143 2.25 0
1.07143 2.5 0
1.07143 2.25 0
1.28571 2.5 0
1.28571 2.25 0
0.214286 0.75 0
0.321429 0.75 0
0.214286 0.875 0
0.321429 0.875 0
0.321429 0.75 0
0.428571 0.75 0
0.321429 0.875 0
0.428571 0.875 0
0.214286 0.875 0
0.321429 0.875 0
0.214286 1 0
0.321429 1 0
0.321429 0.875 0
0.428571 0.875 0
0.321429 1 0
0.428571 1 0
0.428571 0.75 0
0.535714 0.75 0
0.428571 0.875 0
0.535714 0.875 0
0.535714 0.75 0
0.642857 0.75 0
0.535714 0.875 0
0.642857 0.875 0
0.428571 0.875 0
0.535714 0.875 0
0.428571 1 0
0.535714 1 0
0.535714 0.875 0
0.642857 0.875 0
0.535714 1 0
0.642857 1 0
0.642857 0.75 0
0.75 0.75 0
0.642857 0.875 0
0.75 0.875 0
0.75 0.75 0
0.857143 0.75 0
0.75 0.875 0
0.857143 0.875 0
0.642857 0.875 0
0.75 0.875 0
0.642857 1 0
0.75 1 0
0.75 0.875 0
0.857143 0.875 0
0.75 1 0
0.857143 1 0
0.857143 0.75 0
0.964286 0.75 0
0.857143 0.875 0
0.964286 0.875 0
0.964286 0.75 0
1.07143 0.75 0
0.964286 0.875 0
1.07143 0.875 0
0.857143 0.875 0
0.964286 0.875 0
0.857143 1 0
0.964286 1 0
0.964286 0.875 0
1.07143 0.875 0
0.964286 1 0
1.07143 1 0
1.07143 0.75 0
1.17857 0.75 0
1.07143 0.875 0
1.17857 0.875 0
1.17857 0.75 0
1.28571 0.75 0
1.17857 0.875 0
1.28571 0.875 0
1.07143 0.875 0
1.17857 0.875 0
1.07143 1 0
1.17857 1 0
1.17857 0.875 0
1.28571 0.875 0
1.17857 1 0
1.28571 1 0
0.214286 2 0
0.214286 1.875 0
0.321429 2 0
0.321429 1.875 0
0.214286 1.875 0
0.214286 1.75 0
0.321429 1.875 0
0.321429 1.75 0
0.321429 2 0
0.321429 1.875 0
0.428571 2 0
0.428571 1.875 0
0.321429 1.875 0
0.321429 1.75 0
0.428571 1.875 0
0.428571 1.75 0
0.428571 2 0
0.428571 1.875 0
0.535714 2 0
0.535714 1.875 0
0.428571 1.875 0
0.428571 1.75 0
0.535714 1.875 0
0.535714 1.75 0
0.535714 2 0
0.535714 1.875 0
0.642857 2 0
0.642857 1.875 0
0.535714 1.875 0
0.535714 1.75 0
0.642857 1.875 0
0.642857 1.75 0
0.642857 2 0
0.642857 1.875 0
0.75 2 0
0.75 1.875 0
0.642857 1.875 0
0.642857 1.75 0
0.75 1.875 0
0.75 1.75 0
0.75 2 0
0.75 1.875 0
0.857143 2 0
0.857143 1.875 0
0.75 1.875 0
0.75 1.75 0
0.857143 1.875 0
0.857143 1.75 0
0.857143 2 0
0.857143 1.875 0
0.964286 2 0
0.964286 1.875 0
0.857143 1.875 0
0.857143 1.75 0
0.964286 1.875 0
0.964286 1.75 0
0.964286 2 0
0.964286 1.875 0
1.07143 2 0
1.07143 1.875 0
0.964286 1.875 0
0.964286 1.75 0
1.07143 1.875 0
1.07143 1.75 0
1.07143 2 0
1.07143 1.875 0
1.17857 2 0
1.17857 1.875 0
1.07143 1.875 0
1.07143 1.75 0
1.17857 1.875 0
1.17857 1.75 0
1.17857 2 0
1.17857 1.875 0
1.28571 2 0
1.28571 1.875 0
1.17857 1.875 0
1.17857 1.75 0
1.28571 1.875 0
1.28571 1.75 0
0.214286 1.25 0
0.214286 1.125 0
0.321429 1.25 0
0.321429 1.125 0
0.214286 1.125 0
0.214286 1 0
0.321429 1.125 0
0.321429 1 0
0.321429 1.25 0
0.321429 1.125 0
0.428571 1.25 0
0.428571 1.125 0
0.321429 1.125 0
0.321429 1 0
0.428571 1.125 0
0.428571 1 0
0.428571 1.25 0
0.428571 1.125 0
0.535714 1.25 0
0.535714 1.125 0
0.428571 1.125 0
0.428571 1 0
0.535714 1.125 0
0.535714 1 0
0.535714 1.25 0
0.535714 1.125 0
0.642857 1.25 0
0.642857 1.125 0
0.535714 1.125 0
0.535714 1 0
0.642857 1.125 0
0.642857 1 0
0.642857 1.25 0
0.642857 1.125 0
0.75 1.25 0
0.75 1.125 0
0.642857 1.125 0
0.642857 1 0
0.75 1.125 0
0.75 1 0
0.75 1.25 0
0.75 1.125 0
0.857143 1.25 0
0.857143 1.125 0
0.75 1.125 0
0.75 1 0
0.857143 1.125 0
0.857143 1 0
0.857143 1.25 0
0.857143 1.125 0
0.964286 1.25 0
0.964286 1.125 0
0.857143 1.125 0
0.857143 1 0
0.964286 1.125 0
0.964286 1 0
0.964286 1.25 0
0.964286 1.125 0
1.07143 1.25 0
1.07143 1.125 0
0.964286 1.125 0
0.964286 1 0
1.07143 1.125 0
1.07143 1 0
1.07143 1.25 0
1.07143 1.125 0
1.17857 1.25 0
1.17857 1.125 0
1.07143 1.125 0
1.07143 1 0
1.17857 1.125 0
1.17857 1 0
1.17857 1.25 0
1.17857 1.125 0
1.28571 1.25 0
1.28571 1.125 0
1.17857 1.125 0
1.17857 1 0
1.28571 1.125 0
1.28571 1 0
0.214286 2.25 0
0.214286 2.125 0
0.321429 2.25 0
0.321429 2.125 0
0.214286 2.125 0
0.214286 2 0
0.321429 2.125 0
0.321429 2 0
0.321429 2.25 0
0.321429 2.125 0
0.428571 2.25 0
0.428571 2.125 0
0.321429 2.125 0
0.321429 2 0
0.428571 2.125 0
0.428571 2 0
0.428571 2.25 0
0.428571 2.125 0
0.535714 2.25 0
0.535714 2.125 0
0.428571 2.125 0
0.428571 2 0
0.535714 2.125 0
0.535714 2 0
0.535714 2.25 0
0.535714 2.125 0
0.642857 2.25 0
0.642857 2.125 0
0.535714 2.125 0
0.535714 2 0
0.642857 2.125 0
0.642857 2 0
0.642857 2.25 0
0.642857 2.125 0
0.75 2.25 0
0.75 2.125 0
0.642857 2.125 0
0.642857 2 0
0.75 2.125 0
0.75 2 0
0.75 2.25 0
0.75 2.125 0
0.857143 2.25 0
0.857143 2.125 0
0.75 2.125 0
0.75 2 0
0.857143 2.125 0
0.857143 2 0
0.857143 2.25 0
0.857143 2.125 0
0.964286 2.25 0
0.964286 2.125 0
0.857143 2.125 0
0.857143 2 0
0.964286 2.125 0
0.964286 2 0
0.964286 2.25 0
0.964286 2.125 0
1.07143 2.25 0
1.07143 2.125 0
0.964286 2.125 0
0.964286 2 0
1.07143 2.125 0
1.07143 2 0
1.07143 2.25 0
1.07143 2.125 0
1.17857 2.25 0
1.17857 2.125 0
1.07143 2.125 0
1.07143 2 0
1.17857 2.125 0
1.17857 2 0
1.17857 2.25 0
1.17857 2.125 0
1.28571 2.25 0
1.28571 2.125 0
1.17857 2.125 0
1.17857 2 0
1.28571 2.125 0
1.28571 2 0
0 0.5 0
0.107143 0.5 0
0 0.625 0
0.107143 0.625 0
0.107143 0.5 0
0.214286 0.5 0
0.107143 0.625 0
0.214286 0.625 0
0 0.625 0
0.107143 0.625 0
0 0.75 0
0.107143 0.75 0
0.107143 0.625 0
0.214286 0.625 0
0.107143 0.75 0
0.214286 0.75 0
0.214286 0.5 0
0.321429 0.5 0
0.214286 0.625 0
0.321429 0.625 0
0.321429 0.5 0
0.428571 0.5 0
0.321429 0.625 0
0.428571 0.625 0
0.214286 0.625 0
0.321429 0.625 0
0.214286 0.75 0
0.321429 0.75 0
0.321429 0.625 0
0.428571 0.625 0
0.321429 0.75 0
0.428571 0.75 0
1.28571 0.5 0
1.39286 0.5 0
1.28571 0.625 0
1.39286 0.625 0
1.39286 0.5 0
1.5 0.5 0
1.39286 0.625 0
1.5 0.625 0
1.28571 0.625 0
1.39286 0.625 0
1.28571 0.75 0
1.39286 0.75 0
1.39286 0.625 0
1.5 0.625 0
1.39286 0.75 0
1.5 0.75 0
1.28571 0.75 0
1.39286 0.75 0
1.28571 0.875 0
1.39286 0.875 0
1.39286 0.75 0
1.5 0.75 0
1.39286 0.875 0
1.5 0.875 0
1.28571 0.875 0
1.39286 0.875 0
1.28571 1 0
1.39286 1 0
1.39286 0.875 0
1.5 0.875 0
1.39286 1 0
1.5 1 0
1.5 0.5 0
1.60714 0.5 0
1.5 0.625 0
1.60714 0.625 0
1.60714 0.5 0
1.71429 0.5 0
1.60714 0.625 0
1.71429 0.625 0
1.5 0.625 0
1.60714 0.625 0
1.5 0.75 0
1.60714 0.75 0
1.60714 0.625 0
1.71429 0.625 0
1.60714 0.75 0
1.71429 0.75 0
1.71429 0.5 0
1.82143 0.5 0
1.71429 0.625 0
1.82143 0.625 0
1.82143 0.5 0
1.92857 0.5 0
1.82143 0.625 0
1.92857 0.625 0
1.71429 0.625 0
1.82143 0.625 0
1.71429 0.75 0
1.82143 0.75 0
1.82143 0.625 0
1.92857 0.625 0
1.82143 0.75 0
1.92857 0.75 0
1.92857 0.5 0
2.03571 0.5 0
1.92857 0.625 0
2.03571 0.625 0
2.03571 0.5 0
2.14286 0.5 0
2.03571 0.625 0
2.14286 0.625 0
1.92857 0.625 0
2.03571 0.625 0
1.92857 0.75 0
2.03571 0.75 0
2.03571 0.625 0
2.14286 0.625 0
2.03571 0.75 0
2.14286 0.75 0
2.14286 0 0
2.25 0 0
2.14286 0.125 0
2.25 0.125 0
2.25 0 0
2.35714 0 0
2.25 0.125 0
2.35714 0.125 0
2.14286 0.125 0
2.25 0.125 0
2.14286 0.25 0
2.25 0.25 0
2.25 0.125 0
2.35714 0.125 0
2.25 0.25 0
2.35714 0.25 0
2.14286 0.25 0
2.25 0.25 0
2.14286 0.375 0
2.25 0.375 0
2.25 0.25 0
2.35714 0.25 0
2.25 0.375 0
2.35714 0.375 0
2.14286 0.375 0
2.25 0.375 0
2.14286 0.5 0
2.25 0.5 0
2.25 0.375 0
2.35714 0.375 0
2.25 0.5 0
2.35714 0.5 0
2.14286 0.5 0
2.25 0.5 0
2.14286 0.625 0
2.25 0.625 0
2.25 0.5 0
2.35714 0.5 0
2.25 0.625 0
2.35714 0.625 0
2.14286 0.625 0
2.25 0.625 0
2.14286 0.75 0
2.25 0.75 0
2.25 0.625 0
2.35714 0.625 0
2.25 0.75 0
2.35714 0.75 0
2.35714 0 0
2.46429 0 0
[...]
POINT_DATA 3648
VECTORS velocity double
0 0 0
0 0 0
0 0 0
-0.0115827 0.0130325 0
0 0 0
-0.0115827 0.0130325 0
0 0 0
-0.00158466 0.0285397 0
0 0 0
0 0 0
-0.0115827 0.0130325 0
-0.0343918 0.013358 0
-0.0115827 0.0130325 0
-0.0343918 0.013358 0
-0.00158466 0.0285397 0
-0.00176146 0.0250217 0
0 0 0
0 0 0
-0.0343918 0.013358 0
-0.0524097 0.00805725 0
-0.0343918 0.013358 0
-0.0524097 0.00805725 0
-0.00176146 0.0250217 0
-0.00269848 0.0185496 0
-0.00176146 0.0250217 0
-0.00269848 0.0185496 0
0.0206519 0.0158692 0
0.0358288 0.0116264 0
0 0 0
0 0 0
-0.0524097 0.00805725 0
-0.0586355 -0.000470345 0
-0.0524097 0.00805725 0
-0.0586355 -0.000470345 0
-0.00269848 0.0185496 0
0.00325792 -0.0117358 0
-0.00269848 0.0185496 0
0.00325792 -0.0117358 0
0.0358288 0.0116264 0
0.0347501 -0.010398 0
0 0 0
0 0 0
-0.0586355 -0.000470345 0
-0.0484704 -0.0110714 0
-0.0586355 -0.000470345 0
-0.0484704 -0.0110714 0
0.00325792 -0.0117358 0
0.00724174 -0.016158 0
0.00325792 -0.0117358 0
0.00724174 -0.016158 0
0.0347501 -0.010398 0
0.0175078 -0.00105769 0
0 0 0
0 0 0
-0.0484704 -0.0110714 0
-0.00753666 -0.0389735 0
-0.0484704 -0.0110714 0
-0.00753666 -0.0389735 0
0.00724174 -0.016158 0
-0.0202029 -0.0497962 0
0.00724174 -0.016158 0
-0.0202029 -0.0497962 0
0.0175078 -0.00105769 0
0.00822689 -0.0226595 0
0 0 0
0 0 0
-0.00753666 -0.0389735 0
0.0727486 -0.0558339 0
-0.00753666 -0.0389735 0
0.0727486 -0.0558339 0
-0.0202029 -0.0497962 0
-0.0671548 -0.0820836 0
0 0 0
0 0 0
0.0727486 -0.0558339 0
0.0817506 0.0456777 0
0.0727486 -0.0558339 0
0.0817506 0.0456777 0
-0.0671548 -0.0820836 0
-0.066057 0.0578346 0
0 0 0
0 0 0
0.0817506 0.0456777 0
0.0280525 0.0167519 0
0.0817506 0.0456777 0
0.0280525 0.0167519 0
-0.066057 0.0578346 0
-0.0422332 0.0402602 0
0 0 0
0 0 0
0.0280525 0.0167519 0
-0.0104338 0.0269318 0
0.0280525 0.0167519 0
-0.0104338 0.0269318 0
-0.0422332 0.0402602 0
-0.0117527 0.0123275 0
0 0 0
0 0 0
0 0 0
-0.0116861 -0.0131468 0
0 0 0
-0.0116861 -0.0131468 0
0 0 0
-0.0346486 -0.0134187 0
0 0 0
-0.0346486 -0.0134187 0
0 0 0
-0.0526342 -0.00796889 0
0 0 0
-0.0526342 -0.00796889 0
0 0 0
-0.0586836 0.000578693 0
0 0 0
-0.0586836 0.000578693 0
0 0 0
-0.0484523 0.0110435 0
0 0 0
-0.0484523 0.0110435 0
0 0 0
-0.0074476 0.0391061 0
0 0 0
-0.0074476 0.0391061 0
0 0 0
0.0728971 0.0557737 0
0 0 0
0.0728971 0.0557737 0
0 0 0
0.0818394 -0.0456749 0
0 0 0
0.0818394 -0.0456749 0
0 0 0
0.0282028 -0.0166963 0
0 0 0
0.0282028 -0.0166963 0
0 0 0
-0.0103432 -0.0270475 0
0 0 0
0 0 0
-0.0116861 -0.0131468 0
-0.00159836 -0.0287947 0
-0.0116861 -0.0131468 0
-0.00159836 -0.0287947 0
-0.0346486 -0.0134187 0
-0.00173687 -0.0250814 0
-0.0346486 -0.0134187 0
-0.00173687 -0.0250814 0
-0.0526342 -0.00796889 0
-0.00262561 -0.0183656 0
-0.0526342 -0.00796889 0
-0.00262561 -0.0183656 0
-0.0586836 0.000578693 0
0.00338072 0.0120242 0
-0.0586836 0.000578693 0
0.00338072 0.0120242 0
-0.0484523 0.0110435 0
0.00744394 0.016115 0
-0.0484523 0.0110435 0
0.00744394 0.016115 0
-0.0074476 0.0391061 0
-0.0201869 0.0498069 0
-0.0074476 0.0391061 0
-0.0201869 0.0498069 0
0.0728971 0.0557737 0
-0.0672176 0.0820961 0
0.0728971 0.0557737 0
-0.0672176 0.0820961 0
0.0818394 -0.0456749 0
-0.0660448 -0.0578588 0
0.0818394 -0.0456749 0
-0.0660448 -0.0578588 0
0.0282028 -0.0166963 0
-0.0422357 -0.0401345 0
0.0282028 -0.0166963 0
-0.0422357 -0.0401345 0
-0.0103432 -0.0270475 0
-0.0117601 -0.0125777 0
-0.00173687 -0.0250814 0
0.0208049 -0.0159406 0
-0.00262561 -0.0183656 0
0.0359139 -0.0114555 0
-0.00262561 -0.0183656 0
0.0359139 -0.0114555 0
0.00338072 0.0120242 0
0.0346996 0.0105857 0
0.00338072 0.0120242 0
0.0346996 0.0105857 0
0.00744394 0.016115 0
0.0172786 0.00097922 0
0.00744394 0.016115 0
0.0172786 0.00097922 0
-0.0201869 0.0498069 0
0.00809389 0.0226097 0
0.0066354 0.0211081 0
0.015307 0.0228026 0
0.00344543 0.0117747 0
0.0107303 0.0133741 0
0.015307 0.0228026 0
0.0206519 0.0158692 0
0.0107303 0.0133741 0
0.0196167 0.00888455 0
0.00344543 0.0117747 0
0.0107303 0.0133741 0
0.0520116 -0.00336163 0
0.0740665 -0.00500895 0
0.0107303 0.0133741 0
0.0196167 0.00888455 0
0.0740665 -0.00500895 0
0.0929696 -0.00488401 0
0.0206519 0.0158692 0
0.0277072 0.0132562 0
0.0196167 0.00888455 0
0.0249744 0.00600818 0
0.0277072 0.0132562 0
0.0358288 0.0116264 0
0.0249744 0.00600818 0
0.0297059 0.00421753 0
0.0196167 0.00888455 0
0.0249744 0.00600818 0
0.0929696 -0.00488401 0
0.109327 -0.00575042 0
0.0249744 0.00600818 0
0.0297059 0.00421753 0
0.109327 -0.00575042 0
0.12325 -0.00633266 0
0.0358288 0.0116264 0
0.0398419 0.00148584 0
0.0297059 0.00421753 0
0.0330901 0.000772595 0
0.0398419 0.00148584 0
0.0347501 -0.010398 0
0.0330901 0.000772595 0
0.0327375 -0.00267829 0
0.0297059 0.00421753 0
0.0330901 0.000772595 0
0.12325 -0.00633266 0
0.13538 -0.00747487 0
0.0330901 0.000772595 0
0.0327375 -0.00267829 0
0.13538 -0.00747487 0
0.146247 -0.00747048 0
0.0347501 -0.010398 0
0.0256728 -0.00684547 0
0.0327375 -0.00267829 0
0.0316699 -0.0023537 0
0.0256728 -0.00684547 0
0.0175078 -0.00105769 0
0.0316699 -0.0023537 0
0.0354701 -0.000219414 0
0.0327375 -0.00267829 0
0.0316699 -0.0023537 0
0.146247 -0.00747048 0
0.15591 -0.00851029 0
0.0316699 -0.0023537 0
0.0354701 -0.000219414 0
0.15591 -0.00851029 0
0.164034 -0.00894493 0
0.0175078 -0.00105769 0
0.0112471 -0.0101722 0
0.0354701 -0.000219414 0
0.0385425 -0.00696607 0
0.0112471 -0.0101722 0
0.00822689 -0.0226595 0
0.0385425 -0.00696607 0
0.030957 -0.0129536 0
0.0354701 -0.000219414 0
0.0385425 -0.00696607 0
0.164034 -0.00894493 0
0.170717 -0.0103653 0
0.0385425 -0.00696607 0
0.030957 -0.0129536 0
0.170717 -0.0103653 0
0.176553 -0.00774942 0
0.0520088 0.00336593 0
0.24065 0.013245 0
0.0740843 0.00500429 0
0.233604 0.0122564 0
0.24065 0.013245 0
0.157852 0.0065752 0
0.233604 0.0122564 0
0.153752 0.00622058 0
0.0740843 0.00500429 0
0.233604 0.0122564 0
0.093011 0.00487881 0
0.226997 0.0111945 0
0.233604 0.0122564 0
0.153752 0.00622058 0
0.226997 0.0111945 0
0.150108 0.00565871 0
0.093011 0.00487881 0
0.226997 0.0111945 0
0.109393 0.00575509 0
0.220719 0.0101957 0
0.226997 0.0111945 0
0.150108 0.00565871 0
0.220719 0.0101957 0
0.146919 0.00528208 0
0.109393 0.00575509 0
0.220719 0.0101957 0
0.123346 0.0063498 0
0.21468 0.00996157 0
0.220719 0.0101957 0
0.146919 0.00528208 0
0.21468 0.00996157 0
0.144037 0.00513231 0
0.123346 0.0063498 0
0.21468 0.00996157 0
0.1355 0.00751254 0
0.208659 0.00951773 0
0.21468 0.00996157 0
0.144037 0.00513231 0
0.208659 0.00951773 0
0.141421 0.00494489 0
0.1355 0.00751254 0
0.208659 0.00951773 0
0.146387 0.00750681 0
0.202488 0.00945449 0
0.208659 0.00951773 0
0.141421 0.00494489 0
0.202488 0.00945449 0
0.139034 0.00477118 0
0.146387 0.00750681 0
0.202488 0.00945449 0
0.156071 0.0085449 0
0.196154 0.00899959 0
0.202488 0.00945449 0
0.139034 0.00477118 0
0.196154 0.00899959 0
0.136849 0.00454398 0
0.156071 0.0085449 0
0.196154 0.00899959 0
0.164211 0.00897683 0
0.189832 0.00942192 0
0.196154 0.00899959 0
0.136849 0.00454398 0
0.189832 0.00942192 0
0.134765 0.00475807 0
0.164211 0.00897683 0
0.189832 0.00942192 0
0.170901 0.0104028 0
0.183414 0.00876227 0
0.189832 0.00942192 0
0.134765 0.00475807 0
0.183414 0.00876227 0
0.132856 0.00409428 0
0.170901 0.0104028 0
0.183414 0.00876227 0
0.176742 0.00777225 0
0.176951 0.00756363 0
0.183414 0.00876227 0
0.132856 0.00409428 0
0.176951 0.00756363 0
0.131327 0.00333904 0
0.158062 -0.00658379 0
0.240574 -0.0132443 0
0.153954 -0.00622849 0
0.233548 -0.0122601 0
0.240574 -0.0132443 0
0.0520116 -0.00336163 0
0.233548 -0.0122601 0
0.0740665 -0.00500895 0
0.153954 -0.00622849 0
0.233548 -0.0122601 0
0.150302 -0.00566364 0
0.226958 -0.0111959 0
0.233548 -0.0122601 0
0.0740665 -0.00500895 0
0.226958 -0.0111959 0
0.0929696 -0.00488401 0
0.150302 -0.00566364 0
0.226958 -0.0111959 0
0.147105 -0.00528278 0
0.220698 -0.0101907 0
0.226958 -0.0111959 0
0.0929696 -0.00488401 0
0.220698 -0.0101907 0
0.109327 -0.00575042 0
0.147105 -0.00528278 0
0.220698 -0.0101907 0
0.144217 -0.00512872 0
0.214684 -0.00994495 0
0.220698 -0.0101907 0
0.109327 -0.00575042 0
0.214684 -0.00994495 0
0.12325 -0.00633266 0
0.144217 -0.00512872 0
0.214684 -0.00994495 0
0.141597 -0.00493807 0
0.208695 -0.00949524 0
0.214684 -0.00994495 0
0.12325 -0.00633266 0
0.208695 -0.00949524 0
0.13538 -0.00747487 0
0.141597 -0.00493807 0
0.208695 -0.00949524 0
0.139206 -0.00476375 0
0.202561 -0.00942898 0
0.208695 -0.00949524 0
0.13538 -0.00747487 0
0.202561 -0.00942898 0
0.146247 -0.00747048 0
0.139206 -0.00476375 0
0.202561 -0.00942898 0
0.137015 -0.00453701 0
0.196265 -0.00897915 0
0.202561 -0.00942898 0
0.146247 -0.00747048 0
0.196265 -0.00897915 0
0.15591 -0.00851029 0
0.137015 -0.00453701 0
0.196265 -0.00897915 0
0.134923 -0.00474971 0
0.189978 -0.00940191 0
0.196265 -0.00897915 0
0.15591 -0.00851029 0
0.189978 -0.00940191 0
0.164034 -0.00894493 0
0.134923 -0.00474971 0
0.189978 -0.00940191 0
0.133003 -0.00409205 0
0.183592 -0.0087492 0
0.189978 -0.00940191 0
0.164034 -0.00894493 0
0.183592 -0.0087492 0
0.170717 -0.0103653 0
0.133003 -0.00409205 0
0.183592 -0.0087492 0
0.131462 -0.00333874 0
0.177161 -0.00755428 0
0.183592 -0.0087492 0
0.170717 -0.0103653 0
0.177161 -0.00755428 0
0.176553 -0.00774942 0
0.00674465 -0.0212946 0
0.00348902 -0.0118651 0
0.0154594 -0.0229491 0
0.0108841 -0.0134384 0
0.00348902 -0.0118651 0
0.0520088 0.00336593 0
0.0108841 -0.0134384 0
0.0740843 0.00500429 0
0.0154594 -0.0229491 0
0.0108841 -0.0134384 0
0.0208049 -0.0159406 0
0.0198463 -0.00894989 0
0.0108841 -0.0134384 0
0.0740843 0.00500429 0
0.0198463 -0.00894989 0
0.093011 0.00487881 0
0.0208049 -0.0159406 0
0.0198463 -0.00894989 0
0.0278111 -0.0132072 0
0.0252235 -0.00599996 0
0.0198463 -0.00894989 0
0.093011 0.00487881 0
0.0252235 -0.00599996 0
0.109393 0.00575509 0
0.0278111 -0.0132072 0
0.0252235 -0.00599996 0
0.0359139 -0.0114555 0
0.0298628 -0.00413463 0
0.0252235 -0.00599996 0
0.109393 0.00575509 0
0.0298628 -0.00413463 0
0.123346 0.0063498 0
0.0359139 -0.0114555 0
0.0298628 -0.00413463 0
0.0398924 -0.00130865 0
0.0331239 -0.000688397 0
0.0298628 -0.00413463 0
0.123346 0.0063498 0
0.0331239 -0.000688397 0
0.1355 0.00751254 0
0.0398924 -0.00130865 0
0.0331239 -0.000688397 0
0.0346996 0.0105857 0
0.0326846 0.00274397 0
0.0331239 -0.000688397 0
0.1355 0.00751254 0
0.0326846 0.00274397 0
0.146387 0.00750681 0
0.0346996 0.0105857 0
0.0326846 0.00274397 0
0.0255103 0.00691225 0
0.0315792 0.00237527 0
0.0326846 0.00274397 0
0.146387 0.00750681 0
0.0315792 0.00237527 0
0.156071 0.0085449 0
0.0255103 0.00691225 0
0.0315792 0.00237527 0
0.0172786 0.00097922 0
0.0354334 0.000179878 0
0.0315792 0.00237527 0
0.156071 0.0085449 0
0.0354334 0.000179878 0
0.164211 0.00897683 0
0.0172786 0.00097922 0
0.0354334 0.000179878 0
0.0110192 0.0100883 0
0.0385984 0.00695746 0
0.0354334 0.000179878 0
0.164211 0.00897683 0
0.0385984 0.00695746 0
0.170901 0.0104028 0
0.0110192 0.0100883 0
0.0385984 0.00695746 0
0.00809389 0.0226097 0
0.0310472 0.012979 0
0.0385984 0.00695746 0
0.170901 0.0104028 0
0.0310472 0.012979 0
0.176742 0.00777225 0
0 0 0
-0.000358161 0.014627 0
0 0 0
0.00119671 0.0138969 0
-0.000358161 0.014627 0
-0.00158466 0.0285397 0
0.00119671 0.0138969 0
0.00276127 0.0290592 0
0 0 0
0.00119671 0.0138969 0
0 0 0
0.000100127 0.012665 0
0.00119671 0.0138969 0
0.00276127 0.0290592 0
0.000100127 0.012665 0
0.0066354 0.0211081 0
-0.00158466 0.0285397 0
-0.0024588 0.0267237 0
0.00276127 0.0290592 0
0.00397964 0.0260584 0
-0.0024588 0.0267237 0
-0.00176146 0.0250217 0
0.00397964 0.0260584 0
0.00669624 0.0219159 0
0.00276127 0.0290592 0
0.00397964 0.0260584 0
0.0066354 0.0211081 0
0.015307 0.0228026 0
0.00397964 0.0260584 0
0.00669624 0.0219159 0
0.015307 0.0228026 0
0.0206519 0.0158692 0
-0.0202029 -0.0497962 0
-0.0427552 -0.0675851 0
-0.00955251 -0.0301837 0
-0.0304718 -0.0365403 0
-0.0427552 -0.0675851 0
-0.0671548 -0.0820836 0
-0.0304718 -0.0365403 0
-0.0616118 -0.0486551 0
-0.00955251 -0.0301837 0
-0.0304718 -0.0365403 0
0.00822689 -0.0226595 0
-0.00396885 -0.00501921 0
-0.0304718 -0.0365403 0
-0.0616118 -0.0486551 0
-0.00396885 -0.00501921 0
-0.0378273 -0.00490725 0
0.00822689 -0.0226595 0
-0.00396885 -0.00501921 0
0.030957 -0.0129536 0
0.0289659 0.00149354 0
-0.00396885 -0.00501921 0
-0.0378273 -0.00490725 0
0.0289659 0.00149354 0
0.0458544 0.00822974 0
0.030957 -0.0129536 0
0.0289659 0.00149354 0
0.176553 -0.00774942 0
0.181013 -0.00711149 0
0.0289659 0.00149354 0
0.0458544 0.00822974 0
0.181013 -0.00711149 0
0.182711 -0.00472957 0
-0.0671548 -0.0820836 0
-0.0800268 -0.0102054 0
-0.0616118 -0.0486551 0
-0.0758928 -0.0107939 0
-0.0800268 -0.0102054 0
-0.066057 0.0578346 0
-0.0758928 -0.0107939 0
-0.0624792 0.0259904 0
-0.0616118 -0.0486551 0
-0.0758928 -0.0107939 0
-0.0378273 -0.00490725 0
-0.0428503 -0.031128 0
-0.0758928 -0.0107939 0
-0.0624792 0.0259904 0
-0.0428503 -0.031128 0
-0.0388991 0.025299 0
-0.066057 0.0578346 0
-0.0458438 0.0484407 0
-0.0624792 0.0259904 0
-0.048012 0.0397207 0
-0.0458438 0.0484407 0
-0.0422332 0.0402602 0
-0.048012 0.0397207 0
-0.0329029 0.027073 0
-0.0624792 0.0259904 0
-0.048012 0.0397207 0
-0.0388991 0.025299 0
-0.042418 0.0280278 0
-0.048012 0.0397207 0
-0.0329029 0.027073 0
-0.042418 0.0280278 0
-0.022674 -0.00179738 0
-0.0422332 0.0402602 0
-0.0372532 0.0271587 0
-0.0329029 0.027073 0
-0.00170225 -0.00198956 0
-0.0372532 0.0271587 0
-0.0117527 0.0123275 0
-0.00170225 -0.00198956 0
0.0135462 -0.00656396 0
-0.0329029 0.027073 0
-0.00170225 -0.00198956 0
-0.022674 -0.00179738 0
-0.0231712 -0.00870482 0
-0.00170225 -0.00198956 0
0.0135462 -0.00656396 0
-0.0231712 -0.00870482 0
-0.029557 -0.00988058 0
0 0 0
0 0 0
-0.0030818 0.00667896 0
-0.0382005 0.0341379 0
0 0 0
0 0 0
-0.0382005 0.0341379 0
-0.0375046 -0.0338061 0
-0.0030818 0.00667896 0
-0.0382005 0.0341379 0
-0.0104338 0.0269318 0
0.0126296 0.0278493 0
-0.0382005 0.0341379 0
-0.0375046 -0.0338061 0
0.0126296 0.0278493 0
0.0145171 -0.0297738 0
-0.0104338 0.0269318 0
0.0126296 0.0278493 0
-0.0113626 0.0368969 0
0.00717132 -0.0295544 0
0.0126296 0.0278493 0
0.0145171 -0.0297738 0
0.00717132 -0.0295544 0
-0.0035175 0.0371678 0
-0.0113626 0.0368969 0
0.00717132 -0.0295544 0
-0.0117527 0.0123275 0
-0.00644639 -0.0309407 0
0.00717132 -0.0295544 0
-0.0035175 0.0371678 0
-0.00644639 -0.0309407 0
-0.0206316 0.0667039 0
-0.0117527 0.0123275 0
-0.00644639 -0.0309407 0
0.0135462 -0.00656396 0
-0.00989296 0.00863606 0
-0.00644639 -0.0309407 0
-0.0206316 0.0667039 0
-0.00989296 0.00863606 0
-0.020798 0.0558511 0
0.0135462 -0.00656396 0
-0.00989296 0.00863606 0
-0.029557 -0.00988058 0
-0.0112108 0.0177812 0
-0.00989296 0.00863606 0
-0.020798 0.0558511 0
-0.0112108 0.0177812 0
0.00985758 0.0350449 0
0 0 0
0 0 0
-0.0375046 -0.0338061 0
-0.018281 0.0102749 0
0 0 0
0 0 0
-0.018281 0.0102749 0
-0.0231486 -0.0037043 0
-0.0375046 -0.0338061 0
-0.018281 0.0102749 0
0.0145171 -0.0297738 0
-0.0292186 0.0336629 0
-0.018281 0.0102749 0
-0.0231486 -0.0037043 0
-0.0292186 0.0336629 0
-0.0441782 -0.00227295 0
0.0145171 -0.0297738 0
-0.0292186 0.0336629 0
-0.0035175 0.0371678 0
-0.028384 0.0466205 0
-0.0292186 0.0336629 0
-0.0441782 -0.00227295 0
-0.028384 0.0466205 0
-0.0267928 0.00125797 0
-0.0035175 0.0371678 0
-0.028384 0.0466205 0
-0.0206316 0.0667039 0
-0.00357124 0.0260947 0
-0.028384 0.0466205 0
-0.0267928 0.00125797 0
-0.00357124 0.0260947 0
0.0180261 -0.00514424 0
-0.0206316 0.0667039 0
-0.00357124 0.0260947 0
-0.020798 0.0558511 0
-0.0160926 0.0114238 0
-0.00357124 0.0260947 0
0.0180261 -0.00514424 0
-0.0160926 0.0114238 0
-0.0158408 -0.0158036 0
-0.020798 0.0558511 0
-0.0160926 0.0114238 0
0.00985758 0.0350449 0
0.0204345 0.0139817 0
-0.0160926 0.0114238 0
-0.0158408 -0.0158036 0
0.0204345 0.0139817 0
0.00561755 -0.00147075 0
0 0 0
0 0 0
-0.0231486 -0.0037043 0
-0.0169667 -0.00407666 0
0 0 0
0 0 0
-0.0169667 -0.00407666 0
-0.00405983 -0.0107095 0
-0.0231486 -0.0037043 0
-0.0169667 -0.00407666 0
-0.0441782 -0.00227295 0
-0.0421926 -0.0157177 0
-0.0169667 -0.00407666 0
-0.00405983 -0.0107095 0
-0.0421926 -0.0157177 0
-0.0285846 -0.0294789 0
-0.0441782 -0.00227295 0
-0.0421926 -0.0157177 0
-0.0267928 0.00125797 0
-0.0303239 -0.0177953 0
-0.0421926 -0.0157177 0
-0.0285846 -0.0294789 0
-0.0303239 -0.0177953 0
-0.0310001 -0.0424294 0
-0.0267928 0.00125797 0
-0.0303239 -0.0177953 0
0.0180261 -0.00514424 0
0.0102318 0.00135575 0
-0.0303239 -0.0177953 0
-0.0310001 -0.0424294 0
0.0102318 0.00135575 0
-0.0107622 -0.0363792 0
0.0180261 -0.00514424 0
0.0102318 0.00135575 0
-0.0158408 -0.0158036 0
-0.00402728 0.00729428 0
0.0102318 0.00135575 0
-0.0107622 -0.0363792 0
-0.00402728 0.00729428 0
-0.000710598 -0.021738 0
-0.0158408 -0.0158036 0
-0.00402728 0.00729428 0
0.00561755 -0.00147075 0
0.00146128 -0.016671 0
-0.00402728 0.00729428 0
-0.000710598 -0.021738 0
0.00146128 -0.016671 0
0.00274562 -0.00336082 0
0 0 0
0 0 0
-0.00405983 -0.0107095 0
0.00264475 0.00291064 0
0 0 0
0 0 0
0.00264475 0.00291064 0
0 0 0
-0.00405983 -0.0107095 0
0.00264475 0.00291064 0
-0.0285846 -0.0294789 0
-0.0107307 -0.00681173 0
0.00264475 0.00291064 0
0 0 0
-0.0107307 -0.00681173 0
0 0 0
-0.0285846 -0.0294789 0
-0.0107307 -0.00681173 0
-0.0310001 -0.0424294 0
-0.0133 -0.0354015 0
-0.0107307 -0.00681173 0
0 0 0
-0.0133 -0.0354015 0
0 0 0
-0.0310001 -0.0424294 0
-0.0133 -0.0354015 0
-0.0107622 -0.0363792 0
-0.00997786 -0.0628486 0
-0.0133 -0.0354015 0
0 0 0
-0.00997786 -0.0628486 0
0 0 0
-0.0107622 -0.0363792 0
-0.00997786 -0.0628486 0
-0.000710598 -0.021738 0
-0.00207288 -0.0770578 0
-0.00997786 -0.0628486 0
0 0 0
-0.00207288 -0.0770578 0
0 0 0
-0.000710598 -0.021738 0
-0.00207288 -0.0770578 0
0.00274562 -0.00336082 0
-0.00530099 -0.0856694 0
-0.00207288 -0.0770578 0
0 0 0
-0.00530099 -0.0856694 0
0 0 0
0.176742 0.00777225 0
0.176951 0.00756363 0
0.181203 0.00713827 0
0.171527 0.00571639 0
0.176951 0.00756363 0
0.131327 0.00333904 0
0.171527 0.00571639 0
0.130163 0.00260224 0
0.181203 0.00713827 0
0.171527 0.00571639 0
0.182892 0.00474138 0
0.168271 0.00372602 0
0.171527 0.00571639 0
0.130163 0.00260224 0
0.168271 0.00372602 0
0.129038 0.00183355 0
0.165895 0.00679385 0
0.107556 0.0059707 0
0.161869 0.00664468 0
0.110123 0.00577702 0
0.107556 0.0059707 0
0.227729 2.34018e-06 0
0.110123 0.00577702 0
0.215155 2.21388e-06 0
0.161869 0.00664468 0
0.110123 0.00577702 0
0.157852 0.0065752 0
0.112255 0.00528034 0
0.110123 0.00577702 0
0.215155 2.21388e-06 0
0.112255 0.00528034 0
0.203677 2.29808e-06 0
0.157852 0.0065752 0
0.112255 0.00528034 0
0.153752 0.00622058 0
0.114211 0.00503086 0
0.112255 0.00528034 0
0.203677 2.29808e-06 0
0.114211 0.00503086 0
0.193105 2.39847e-06 0
0.153752 0.00622058 0
0.114211 0.00503086 0
0.150108 0.00565871 0
0.11591 0.00455294 0
0.114211 0.00503086 0
0.193105 2.39847e-06 0
0.11591 0.00455294 0
0.183428 3.03146e-06 0
0.150108 0.00565871 0
0.11591 0.00455294 0
0.146919 0.00528208 0
0.117324 0.00432078 0
0.11591 0.00455294 0
0.183428 3.03146e-06 0
0.117324 0.00432078 0
0.174663 3.77698e-06 0
0.146919 0.00528208 0
0.117324 0.00432078 0
0.144037 0.00513231 0
0.11842 0.00391446 0
0.117324 0.00432078 0
0.174663 3.77698e-06 0
0.11842 0.00391446 0
0.166807 4.42118e-06 0
0.144037 0.00513231 0
0.11842 0.00391446 0
0.141421 0.00494489 0
0.119157 0.00385919 0
0.11842 0.00391446 0
0.166807 4.42118e-06 0
0.119157 0.00385919 0
0.159769 5.03321e-06 0
0.141421 0.00494489 0
0.119157 0.00385919 0
0.139034 0.00477118 0
0.119546 0.00343915 0
0.119157 0.00385919 0
0.159769 5.03321e-06 0
0.119546 0.00343915 0
0.153412 4.95323e-06 0
0.139034 0.00477118 0
0.119546 0.00343915 0
0.136849 0.00454398 0
0.119588 0.00345713 0
0.119546 0.00343915 0
0.153412 4.95323e-06 0
0.119588 0.00345713 0
0.147717 6.18614e-06 0
0.136849 0.00454398 0
0.119588 0.00345713 0
0.134765 0.00475807 0
0.119348 0.00309398 0
0.119588 0.00345713 0
0.147717 6.18614e-06 0
0.119348 0.00309398 0
0.142695 5.96383e-06 0
0.134765 0.00475807 0
0.119348 0.00309398 0
0.132856 0.00409428 0
0.118979 0.00309237 0
0.119348 0.00309398 0
0.142695 5.96383e-06 0
0.118979 0.00309237 0
0.138195 4.01688e-06 0
0.132856 0.00409428 0
0.118979 0.00309237 0
0.131327 0.00333904 0
0.118654 0.00235732 0