# vtk DataFile Version 3.0
#This file was generated by the deal.II library on 2026/3/26 at 11:15:46
ASCII
DATASET UNSTRUCTURED_GRID

POINTS 3648 double
0 0 0
0.214286 0 0
0 0.25 0
0.214286 0.25 0
0 0.25 0
0.214286 0.25 0
0 0.5 0
0.214286 0.5 0
0.214286 0 0
0.428571 0 0
0.214286 0.25 0
0.428571 0.25 0
0.214286 0.25 0
0.428571 0.25 0
0.214286 0.5 0
0.428571 0.5 0
0.428571 0 0
0.642857 0 0
0.428571 0.25 0
0.642857 0.25 0
0.428571 0.25 0
0.642857 0.25 0
0.428571 0.5 0
0.642857 0.5 0
0.428571 0.5 0
0.642857 0.5 0
0.428571 0.75 0
0.642857 0.75 0
0.642857 0 0
0.857143 0 0
0.642857 0.25 0
0.857143 0.25 0
0.642857 0.25 0
0.857143 0.25 0
0.642857 0.5 0
0.857143 0.5 0
0.642857 0.5 0
0.857143 0.5 0
0.642857 0.75 0
0.857143 0.75 0
0.857143 0 0
1.07143 0 0
0.857143 0.25 0
1.07143 0.25 0
0.857143 0.25 0
1.07143 0.25 0
0.857143 0.5 0
1.07143 0.5 0
0.857143 0.5 0
1.07143 0.5 0
0.857143 0.75 0
1.07143 0.75 0
1.07143 0 0
1.28571 0 0
1.07143 0.25 0
1.28571 0.25 0
1.07143 0.25 0
1.28571 0.25 0
1.07143 0.5 0
1.28571 0.5 0
1.07143 0.5 0
1.28571 0.5 0
1.07143 0.75 0
1.28571 0.75 0
1.28571 0 0
1.5 0 0
1.28571 0.25 0
1.5 0.25 0
1.28571 0.25 0
1.5 0.25 0
1.28571 0.5 0
1.5 0.5 0
1.5 0 0
1.71429 0 0
1.5 0.25 0
1.71429 0.25 0
1.5 0.25 0
1.71429 0.25 0
1.5 0.5 0
1.71429 0.5 0
1.71429 0 0
1.92857 0 0
1.71429 0.25 0
1.92857 0.25 0
1.71429 0.25 0
1.92857 0.25 0
1.71429 0.5 0
1.92857 0.5 0
1.92857 0 0
2.14286 0 0
1.92857 0.25 0
2.14286 0.25 0
1.92857 0.25 0
2.14286 0.25 0
1.92857 0.5 0
2.14286 0.5 0
0 3 0
0 2.75 0
0.214286 3 0
0.214286 2.75 0
0.214286 3 0
0.214286 2.75 0
0.428571 3 0
0.428571 2.75 0
0.428571 3 0
0.428571 2.75 0
0.642857 3 0
0.642857 2.75 0
0.642857 3 0
0.642857 2.75 0
0.857143 3 0
0.857143 2.75 0
0.857143 3 0
0.857143 2.75 0
1.07143 3 0
1.07143 2.75 0
1.07143 3 0
1.07143 2.75 0
1.28571 3 0
1.28571 2.75 0
1.28571 3 0
1.28571 2.75 0
1.5 3 0
1.5 2.75 0
1.5 3 0
1.5 2.75 0
1.71429 3 0
1.71429 2.75 0
1.71429 3 0
1.71429 2.75 0
1.92857 3 0
1.92857 2.75 0
1.92857 3 0
1.92857 2.75 0
2.14286 3 0
2.14286 2.75 0
0 2.75 0
0 2.5 0
0.214286 2.75 0
0.214286 2.5 0
0.214286 2.75 0
0.214286 2.5 0
0.428571 2.75 0
0.428571 2.5 0
0.428571 2.75 0
0.428571 2.5 0
0.642857 2.75 0
0.642857 2.5 0
0.642857 2.75 0
0.642857 2.5 0
0.857143 2.75 0
0.857143 2.5 0
0.857143 2.75 0
0.857143 2.5 0
1.07143 2.75 0
1.07143 2.5 0
1.07143 2.75 0
1.07143 2.5 0
1.28571 2.75 0
1.28571 2.5 0
1.28571 2.75 0
1.28571 2.5 0
1.5 2.75 0
1.5 2.5 0
1.5 2.75 0
1.5 2.5 0
1.71429 2.75 0
1.71429 2.5 0
1.71429 2.75 0
1.71429 2.5 0
1.92857 2.75 0
1.92857 2.5 0
1.92857 2.75 0
1.92857 2.5 0
2.14286 2.75 0
2.14286 2.5 0
0.428571 2.5 0
0.428571 2.25 0
0.642857 2.5 0
0.642857 2.25 0
0.642857 2.5 0
0.642857 2.25 0
0.857143 2.5 0
0.857143 2.25 0
0.857143 2.5 0
0.857143 2.25 0
1.07143 2.5 0
1.07143 2.25 0
1.07143 2.5 0
1.07143 2.25 0
1.28571 2.5 0
1.28571 2.25 0
0.214286 0.75 0
0.321429 0.75 0
0.214286 0.875 0
0.321429 0.875 0
0.321429 0.75 0
0.428571 0.75 0
0.321429 0.875 0
0.428571 0.875 0
0.214286 0.875 0
0.321429 0.875 0
0.214286 1 0
0.321429 1 0
0.321429 0.875 0
0.428571 0.875 0
0.321429 1 0
0.428571 1 0
0.428571 0.75 0
0.535714 0.75 0
0.428571 0.875 0
0.535714 0.875 0
0.535714 0.75 0
0.642857 0.75 0
0.535714 0.875 0
0.642857 0.875 0
0.428571 0.875 0
0.535714 0.875 0
0.428571 1 0
0.535714 1 0
0.535714 0.875 0
0.642857 0.875 0
0.535714 1 0
0.642857 1 0
0.642857 0.75 0
0.75 0.75 0
0.642857 0.875 0
0.75 0.875 0
0.75 0.75 0
0.857143 0.75 0
0.75 0.875 0
0.857143 0.875 0
0.642857 0.875 0
0.75 0.875 0
0.642857 1 0
0.75 1 0
0.75 0.875 0
0.857143 0.875 0
0.75 1 0
0.857143 1 0
0.857143 0.75 0
0.964286 0.75 0
0.857143 0.875 0
0.964286 0.875 0
0.964286 0.75 0
1.07143 0.75 0
0.964286 0.875 0
1.07143 0.875 0
0.857143 0.875 0
0.964286 0.875 0
0.857143 1 0
0.964286 1 0
0.964286 0.875 0
1.07143 0.875 0
0.964286 1 0
1.07143 1 0
1.07143 0.75 0
1.17857 0.75 0
1.07143 0.875 0
1.17857 0.875 0
1.17857 0.75 0
1.28571 0.75 0
1.17857 0.875 0
1.28571 0.875 0
1.07143 0.875 0
1.17857 0.875 0
1.07143 1 0
1.17857 1 0
1.17857 0.875 0
1.28571 0.875 0
1.17857 1 0
1.28571 1 0
0.214286 2 0
0.214286 1.875 0
0.321429 2 0
0.321429 1.875 0
0.214286 1.875 0
0.214286 1.75 0
0.321429 1.875 0
0.321429 1.75 0
0.321429 2 0
0.321429 1.875 0
0.428571 2 0
0.428571 1.875 0
0.321429 1.875 0
0.321429 1.75 0
0.428571 1.875 0
0.428571 1.75 0
0.428571 2 0
0.428571 1.875 0
0.535714 2 0
0.535714 1.875 0
0.428571 1.875 0
0.428571 1.75 0
0.535714 1.875 0
0.535714 1.75 0
0.535714 2 0
0.535714 1.875 0
0.642857 2 0
0.642857 1.875 0
0.535714 1.875 0
0.535714 1.75 0
0.642857 1.875 0
0.642857 1.75 0
0.642857 2 0
0.642857 1.875 0
0.75 2 0
0.75 1.875 0
0.642857 1.875 0
0.642857 1.75 0
0.75 1.875 0
0.75 1.75 0
0.75 2 0
0.75 1.875 0
0.857143 2 0
0.857143 1.875 0
0.75 1.875 0
0.75 1.75 0
0.857143 1.875 0
0.857143 1.75 0
0.857143 2 0
0.857143 1.875 0
0.964286 2 0
0.964286 1.875 0
0.857143 1.875 0
0.857143 1.75 0
0.964286 1.875 0
0.964286 1.75 0
0.964286 2 0
0.964286 1.875 0
1.07143 2 0
1.07143 1.875 0
0.964286 1.875 0
0.964286 1.75 0
1.07143 1.875 0
1.07143 1.75 0
1.07143 2 0
1.07143 1.875 0
1.17857 2 0
1.17857 1.875 0
1.07143 1.875 0
1.07143 1.75 0
1.17857 1.875 0
1.17857 1.75 0
1.17857 2 0
1.17857 1.875 0
1.28571 2 0
1.28571 1.875 0
1.17857 1.875 0
1.17857 1.75 0
1.28571 1.875 0
1.28571 1.75 0
0.214286 1.25 0
0.214286 1.125 0
0.321429 1.25 0
0.321429 1.125 0
0.214286 1.125 0
0.214286 1 0
0.321429 1.125 0
0.321429 1 0
0.321429 1.25 0
0.321429 1.125 0
0.428571 1.25 0
0.428571 1.125 0
0.321429 1.125 0
0.321429 1 0
0.428571 1.125 0
0.428571 1 0
0.428571 1.25 0
0.428571 1.125 0
0.535714 1.25 0
0.535714 1.125 0
0.428571 1.125 0
0.428571 1 0
0.535714 1.125 0
0.535714 1 0
0.535714 1.25 0
0.535714 1.125 0
0.642857 1.25 0
0.642857 1.125 0
0.535714 1.125 0
0.535714 1 0
0.642857 1.125 0
0.642857 1 0
0.642857 1.25 0
0.642857 1.125 0
0.75 1.25 0
0.75 1.125 0
0.642857 1.125 0
0.642857 1 0
0.75 1.125 0
0.75 1 0
0.75 1.25 0
0.75 1.125 0
0.857143 1.25 0
0.857143 1.125 0
0.75 1.125 0
0.75 1 0
0.857143 1.125 0
0.857143 1 0
0.857143 1.25 0
0.857143 1.125 0
0.964286 1.25 0
0.964286 1.125 0
0.857143 1.125 0
0.857143 1 0
0.964286 1.125 0
0.964286 1 0
0.964286 1.25 0
0.964286 1.125 0
1.07143 1.25 0
1.07143 1.125 0
0.964286 1.125 0
0.964286 1 0
1.07143 1.125 0
1.07143 1 0
1.07143 1.25 0
1.07143 1.125 0
1.17857 1.25 0
1.17857 1.125 0
1.07143 1.125 0
1.07143 1 0
1.17857 1.125 0
1.17857 1 0
1.17857 1.25 0
1.17857 1.125 0
1.28571 1.25 0
1.28571 1.125 0
1.17857 1.125 0
1.17857 1 0
1.28571 1.125 0
1.28571 1 0
0.214286 2.25 0
0.214286 2.125 0
0.321429 2.25 0
0.321429 2.125 0
0.214286 2.125 0
0.214286 2 0
0.321429 2.125 0
0.321429 2 0
0.321429 2.25 0
0.321429 2.125 0
0.428571 2.25 0
0.428571 2.125 0
0.321429 2.125 0
0.321429 2 0
0.428571 2.125 0
0.428571 2 0
0.428571 2.25 0
0.428571 2.125 0
0.535714 2.25 0
0.535714 2.125 0
0.428571 2.125 0
0.428571 2 0
0.535714 2.125 0
0.535714 2 0
0.535714 2.25 0
0.535714 2.125 0
0.642857 2.25 0
0.642857 2.125 0
0.535714 2.125 0
0.535714 2 0
0.642857 2.125 0
0.642857 2 0
0.642857 2.25 0
0.642857 2.125 0
0.75 2.25 0
0.75 2.125 0
0.642857 2.125 0
0.642857 2 0
0.75 2.125 0
0.75 2 0
0.75 2.25 0
0.75 2.125 0
0.857143 2.25 0
0.857143 2.125 0
0.75 2.125 0
0.75 2 0
0.857143 2.125 0
0.857143 2 0
0.857143 2.25 0
0.857143 2.125 0
0.964286 2.25 0
0.964286 2.125 0
0.857143 2.125 0
0.857143 2 0
0.964286 2.125 0
0.964286 2 0
0.964286 2.25 0
0.964286 2.125 0
1.07143 2.25 0
1.07143 2.125 0
0.964286 2.125 0
0.964286 2 0
1.07143 2.125 0
1.07143 2 0
1.07143 2.25 0
1.07143 2.125 0
1.17857 2.25 0
1.17857 2.125 0
1.07143 2.125 0
1.07143 2 0
1.17857 2.125 0
1.17857 2 0
1.17857 2.25 0
1.17857 2.125 0
1.28571 2.25 0
1.28571 2.125 0
1.17857 2.125 0
1.17857 2 0
1.28571 2.125 0
1.28571 2 0
0 0.5 0
0.107143 0.5 0
0 0.625 0
0.107143 0.625 0
0.107143 0.5 0
0.214286 0.5 0
0.107143 0.625 0
0.214286 0.625 0
0 0.625 0
0.107143 0.625 0
0 0.75 0
0.107143 0.75 0
0.107143 0.625 0
0.214286 0.625 0
0.107143 0.75 0
0.214286 0.75 0
0.214286 0.5 0
0.321429 0.5 0
0.214286 0.625 0
0.321429 0.625 0
0.321429 0.5 0
0.428571 0.5 0
0.321429 0.625 0
0.428571 0.625 0
0.214286 0.625 0
0.321429 0.625 0
0.214286 0.75 0
0.321429 0.75 0
0.321429 0.625 0
0.428571 0.625 0
0.321429 0.75 0
0.428571 0.75 0
1.28571 0.5 0
1.39286 0.5 0
1.28571 0.625 0
1.39286 0.625 0
1.39286 0.5 0
1.5 0.5 0
1.39286 0.625 0
1.5 0.625 0
1.28571 0.625 0
1.39286 0.625 0
1.28571 0.75 0
1.39286 0.75 0
1.39286 0.625 0
1.5 0.625 0
1.39286 0.75 0
1.5 0.75 0
1.28571 0.75 0
1.39286 0.75 0
1.28571 0.875 0
1.39286 0.875 0
1.39286 0.75 0
1.5 0.75 0
1.39286 0.875 0
1.5 0.875 0
1.28571 0.875 0
1.39286 0.875 0
1.28571 1 0
1.39286 1 0
1.39286 0.875 0
1.5 0.875 0
1.39286 1 0
1.5 1 0
1.5 0.5 0
1.60714 0.5 0
1.5 0.625 0
1.60714 0.625 0
1.60714 0.5 0
1.71429 0.5 0
1.60714 0.625 0
1.71429 0.625 0
1.5 0.625 0
1.60714 0.625 0
1.5 0.75 0
1.60714 0.75 0
1.60714 0.625 0
1.71429 0.625 0
1.60714 0.75 0
1.71429 0.75 0
1.71429 0.5 0
1.82143 0.5 0
1.71429 0.625 0
1.82143 0.625 0
1.82143 0.5 0
1.92857 0.5 0
1.82143 0.625 0
1.92857 0.625 0
1.71429 0.625 0
1.82143 0.625 0
1.71429 0.75 0
1.82143 0.75 0
1.82143 0.625 0
1.92857 0.625 0
1.82143 0.75 0
1.92857 0.75 0
1.92857 0.5 0
2.03571 0.5 0
1.92857 0.625 0
2.03571 0.625 0
2.03571 0.5 0
2.14286 0.5 0
2.03571 0.625 0
2.14286 0.625 0
1.92857 0.625 0
2.03571 0.625 0
1.92857 0.75 0
2.03571 0.75 0
2.03571 0.625 0
2.14286 0.625 0
2.03571 0.75 0
2.14286 0.75 0
2.14286 0 0
2.25 0 0
2.14286 0.125 0
2.25 0.125 0
2.25 0 0
2.35714 0 0
2.25 0.125 0
2.35714 0.125 0
2.14286 0.125 0
2.25 0.125 0
2.14286 0.25 0
2.25 0.25 0
2.25 0.125 0
2.35714 0.125 0
2.25 0.25 0
2.35714 0.25 0
2.14286 0.25 0
2.25 0.25 0
2.14286 0.375 0
2.25 0.375 0
2.25 0.25 0
2.35714 0.25 0
2.25 0.375 0
2.35714 0.375 0
2.14286 0.375 0
2.25 0.375 0
2.14286 0.5 0
2.25 0.5 0
2.25 0.375 0
2.35714 0.375 0
2.25 0.5 0
2.35714 0.5 0
2.14286 0.5 0
2.25 0.5 0
2.14286 0.625 0
2.25 0.625 0
2.25 0.5 0
2.35714 0.5 0
2.25 0.625 0
2.35714 0.625 0
2.14286 0.625 0
2.25 0.625 0
2.14286 0.75 0
2.25 0.75 0
2.25 0.625 0
2.35714 0.625 0
2.25 0.75 0
2.35714 0.75 0
2.35714 0 0
2.46429 0 0
[...]
POINT_DATA 3648
VECTORS velocity double
0 0 0
0 0 0
0 0 0
-0.0115292 0.0129795 0
0 0 0
-0.0115292 0.0129795 0
0 0 0
-0.0016523 0.0285255 0
0 0 0
0 0 0
-0.0115292 0.0129795 0
-0.034506 0.0136043 0
-0.0115292 0.0129795 0
-0.034506 0.0136043 0
-0.0016523 0.0285255 0
-0.0019536 0.02559 0
0 0 0
0 0 0
-0.034506 0.0136043 0
-0.0530028 0.00837888 0
-0.034506 0.0136043 0
-0.0530028 0.00837888 0
-0.0019536 0.02559 0
-0.00293791 0.0191832 0
-0.0019536 0.02559 0
-0.00293791 0.0191832 0
0.0208138 0.0162776 0
0.0363857 0.0119962 0
0 0 0
0 0 0
-0.0530028 0.00837888 0
-0.0595328 -0.000395417 0
-0.0530028 0.00837888 0
-0.0595328 -0.000395417 0
-0.00293791 0.0191832 0
0.00292907 -0.0115057 0
-0.00293791 0.0191832 0
0.00292907 -0.0115057 0
0.0363857 0.0119962 0
0.0356566 -0.0102204 0
0 0 0
0 0 0
-0.0595328 -0.000395417 0
-0.0492029 -0.0112939 0
-0.0595328 -0.000395417 0
-0.0492029 -0.0112939 0
0.00292907 -0.0115057 0
0.0069763 -0.0168035 0
0.00292907 -0.0115057 0
0.0069763 -0.0168035 0
0.0356566 -0.0102204 0
0.0183104 -0.00163373 0
0 0 0
0 0 0
-0.0492029 -0.0112939 0
-0.00820338 -0.0388017 0
-0.0492029 -0.0112939 0
-0.00820338 -0.0388017 0
0.0069763 -0.0168035 0
-0.020278 -0.0494821 0
0.0069763 -0.0168035 0
-0.020278 -0.0494821 0
0.0183104 -0.00163373 0
0.00872786 -0.0222886 0
0 0 0
0 0 0
-0.00820338 -0.0388017 0
0.071679 -0.0555312 0
-0.00820338 -0.0388017 0
0.071679 -0.0555312 0
-0.020278 -0.0494821 0
-0.0668191 -0.0819391 0
0 0 0
0 0 0
0.071679 -0.0555312 0
0.0806816 0.0453027 0
0.071679 -0.0555312 0
0.0806816 0.0453027 0
-0.0668191 -0.0819391 0
-0.0655621 0.0574313 0
0 0 0
0 0 0
0.0806816 0.0453027 0
0.0274679 0.0165446 0
0.0806816 0.0453027 0
0.0274679 0.0165446 0
-0.0655621 0.0574313 0
-0.0421955 0.0400365 0
0 0 0
0 0 0
0.0274679 0.0165446 0
-0.0110098 0.0271201 0
0.0274679 0.0165446 0
-0.0110098 0.0271201 0
-0.0421955 0.0400365 0
-0.0114176 0.0121532 0
0 0 0
0 0 0
0 0 0
-0.0116313 -0.0130934 0
0 0 0
-0.0116313 -0.0130934 0
0 0 0
-0.0347852 -0.0136932 0
0 0 0
-0.0347852 -0.0136932 0
0 0 0
-0.0532835 -0.00830446 0
0 0 0
-0.0532835 -0.00830446 0
0 0 0
-0.0596352 0.000516673 0
0 0 0
-0.0596352 0.000516673 0
0 0 0
-0.0491934 0.0113038 0
0 0 0
-0.0491934 0.0113038 0
0 0 0
-0.0080625 0.0389673 0
0 0 0
-0.0080625 0.0389673 0
0 0 0
0.0718105 0.0553486 0
0 0 0
0.0718105 0.0553486 0
0 0 0
0.0806978 -0.0452391 0
0 0 0
0.0806978 -0.0452391 0
0 0 0
0.0275615 -0.016533 0
0 0 0
0.0275615 -0.016533 0
0 0 0
-0.0109756 -0.0271909 0
0 0 0
0 0 0
-0.0116313 -0.0130934 0
-0.00168159 -0.0287964 0
-0.0116313 -0.0130934 0
-0.00168159 -0.0287964 0
-0.0347852 -0.0136932 0
-0.00195521 -0.025699 0
-0.0347852 -0.0136932 0
-0.00195521 -0.025699 0
-0.0532835 -0.00830446 0
-0.00290411 -0.0190465 0
-0.0532835 -0.00830446 0
-0.00290411 -0.0190465 0
-0.0596352 0.000516673 0
0.00301198 0.0118453 0
-0.0596352 0.000516673 0
0.00301198 0.0118453 0
-0.0491934 0.0113038 0
0.00713091 0.0168012 0
-0.0491934 0.0113038 0
0.00713091 0.0168012 0
-0.0080625 0.0389673 0
-0.0203515 0.0495486 0
-0.0080625 0.0389673 0
-0.0203515 0.0495486 0
0.0718105 0.0553486 0
-0.0668024 0.0819246 0
0.0718105 0.0553486 0
-0.0668024 0.0819246 0
0.0806978 -0.0452391 0
-0.065455 -0.0575156 0
0.0806978 -0.0452391 0
-0.065455 -0.0575156 0
0.0275615 -0.016533 0
-0.0421858 -0.0399218 0
0.0275615 -0.016533 0
-0.0421858 -0.0399218 0
-0.0109756 -0.0271909 0
-0.0114082 -0.0123824 0
-0.00195521 -0.025699 0
0.0209838 -0.0163832 0
-0.00290411 -0.0190465 0
0.0365295 -0.0118502 0
-0.00290411 -0.0190465 0
0.0365295 -0.0118502 0
0.00301198 0.0118453 0
0.03566 0.0104337 0
0.00301198 0.0118453 0
0.03566 0.0104337 0
0.00713091 0.0168012 0
0.0181027 0.00157839 0
0.00713091 0.0168012 0
0.0181027 0.00157839 0
-0.0203515 0.0495486 0
0.00861394 0.0222645 0
0.00660978 0.021171 0
0.0153105 0.0228441 0
0.00343819 0.0118434 0
0.0107193 0.013379 0
0.0153105 0.0228441 0
0.0208138 0.0162776 0
0.0107193 0.013379 0
0.0196974 0.00903436 0
0.00343819 0.0118434 0
0.0107193 0.013379 0
0.0522082 -0.00339172 0
0.0743715 -0.00502433 0
0.0107193 0.013379 0
0.0196974 0.00903436 0
0.0743715 -0.00502433 0
0.0933509 -0.00491421 0
0.0208138 0.0162776 0
0.0280574 0.0136533 0
0.0196974 0.00903436 0
0.0252868 0.00617587 0
0.0280574 0.0136533 0
0.0363857 0.0119962 0
0.0252868 0.00617587 0
0.030214 0.0043495 0
0.0196974 0.00903436 0
0.0252868 0.00617587 0
0.0933509 -0.00491421 0
0.109771 -0.00575383 0
0.0252868 0.00617587 0
0.030214 0.0043495 0
0.109771 -0.00575383 0
0.123764 -0.00635143 0
0.0363857 0.0119962 0
0.0405954 0.00176099 0
0.030214 0.0043495 0
0.0337545 0.000880327 0
0.0405954 0.00176099 0
0.0356566 -0.0102204 0
0.0337545 0.000880327 0
0.033524 -0.00264552 0
0.030214 0.0043495 0
0.0337545 0.000880327 0
0.123764 -0.00635143 0
0.135969 -0.007505 0
0.0337545 0.000880327 0
0.033524 -0.00264552 0
0.135969 -0.007505 0
0.146919 -0.00756352 0
0.0356566 -0.0102204 0
0.026617 -0.00702932 0
0.033524 -0.00264552 0
0.0324782 -0.00244746 0
0.026617 -0.00702932 0
0.0183104 -0.00163373 0
0.0324782 -0.00244746 0
0.0361001 -0.00049817 0
0.033524 -0.00264552 0
0.0324782 -0.00244746 0
0.146919 -0.00756352 0
0.156675 -0.00864266 0
0.0324782 -0.00244746 0
0.0361001 -0.00049817 0
0.156675 -0.00864266 0
0.164911 -0.00913533 0
0.0183104 -0.00163373 0
0.0118629 -0.0102962 0
0.0361001 -0.00049817 0
0.0390651 -0.00703194 0
0.0118629 -0.0102962 0
0.00872786 -0.0222886 0
0.0390651 -0.00703194 0
0.0317966 -0.0128689 0
0.0361001 -0.00049817 0
0.0390651 -0.00703194 0
0.164911 -0.00913533 0
0.17171 -0.010555 0
0.0390651 -0.00703194 0
0.0317966 -0.0128689 0
0.17171 -0.010555 0
0.177619 -0.00802775 0
0.0521768 0.00338846 0
0.241306 0.0132774 0
0.0743473 0.00500697 0
0.234194 0.0122768 0
0.241306 0.0132774 0
0.15744 0.00658028 0
0.234194 0.0122768 0
0.153359 0.00622088 0
0.0743473 0.00500697 0
0.234194 0.0122768 0
0.093339 0.00489567 0
0.227536 0.0112013 0
0.234194 0.0122768 0
0.153359 0.00622088 0
0.227536 0.0112013 0
0.149739 0.00566119 0
0.093339 0.00489567 0
0.227536 0.0112013 0
0.109776 0.00574405 0
0.221221 0.0102014 0
0.227536 0.0112013 0
0.149739 0.00566119 0
0.221221 0.0102014 0
0.146573 0.0052858 0
0.109776 0.00574405 0
0.221221 0.0102014 0
0.123794 0.00635548 0
0.21515 0.00996957 0
0.221221 0.0102014 0
0.146573 0.0052858 0
0.21515 0.00996957 0
0.143713 0.00514255 0
0.123794 0.00635548 0
0.21515 0.00996957 0
0.136021 0.00753381 0
0.209089 0.00955451 0
0.21515 0.00996957 0
0.143713 0.00514255 0
0.209089 0.00955451 0
0.141113 0.00496735 0
0.136021 0.00753381 0
0.209089 0.00955451 0
0.14699 0.00759362 0
0.202857 0.00952182 0
0.209089 0.00955451 0
0.141113 0.00496735 0
0.202857 0.00952182 0
0.138735 0.00480834 0
0.14699 0.00759362 0
0.202857 0.00952182 0
0.156771 0.00867392 0
0.196427 0.00911641 0
0.202857 0.00952182 0
0.138735 0.00480834 0
0.196427 0.00911641 0
0.136551 0.00459865 0
0.156771 0.00867392 0
0.196427 0.00911641 0
0.165028 0.00916671 0
0.189965 0.00955995 0
0.196427 0.00911641 0
0.136551 0.00459865 0
0.189965 0.00955995 0
0.134468 0.00481444 0
0.165028 0.00916671 0
0.189965 0.00955995 0
0.171842 0.0105945 0
0.183376 0.00892378 0
0.189965 0.00955995 0
0.134468 0.00481444 0
0.183376 0.00892378 0
0.13256 0.00416259 0
0.171842 0.0105945 0
0.183376 0.00892378 0
0.177763 0.00805132 0
0.176736 0.00773203 0
0.183376 0.00892378 0
0.13256 0.00416259 0
0.176736 0.00773203 0
0.131031 0.00340859 0
0.157596 -0.00659493 0
0.24119 -0.0132894 0
0.153503 -0.00623505 0
0.234091 -0.0122944 0
0.24119 -0.0132894 0
0.0522082 -0.00339172 0
0.234091 -0.0122944 0
0.0743715 -0.00502433 0
0.153503 -0.00623505 0
0.234091 -0.0122944 0
0.14987 -0.00567185 0
0.227441 -0.0112157 0
0.234091 -0.0122944 0
0.0743715 -0.00502433 0
0.227441 -0.0112157 0
0.0933509 -0.00491421 0
0.14987 -0.00567185 0
0.227441 -0.0112157 0
0.146694 -0.00529097 0
0.221135 -0.0102078 0
0.227441 -0.0112157 0
0.0933509 -0.00491421 0
0.221135 -0.0102078 0
0.109771 -0.00575383 0
0.146694 -0.00529097 0
0.221135 -0.0102078 0
0.143826 -0.00514219 0
0.21508 -0.00996113 0
0.221135 -0.0102078 0
0.109771 -0.00575383 0
0.21508 -0.00996113 0
0.123764 -0.00635143 0
0.143826 -0.00514219 0
0.21508 -0.00996113 0
0.141221 -0.00496166 0
0.209044 -0.00953698 0
0.21508 -0.00996113 0
0.123764 -0.00635143 0
0.209044 -0.00953698 0
0.135969 -0.007505 0
0.141221 -0.00496166 0
0.209044 -0.00953698 0
0.138839 -0.00480084 0
0.202842 -0.00949786 0
0.209044 -0.00953698 0
0.135969 -0.007505 0
0.202842 -0.00949786 0
0.146919 -0.00756352 0
0.138839 -0.00480084 0
0.202842 -0.00949786 0
0.136651 -0.00458895 0
0.196446 -0.00909413 0
0.202842 -0.00949786 0
0.146919 -0.00756352 0
0.196446 -0.00909413 0
0.156675 -0.00864266 0
0.136651 -0.00458895 0
0.196446 -0.00909413 0
0.134561 -0.00480243 0
0.190017 -0.00953474 0
0.196446 -0.00909413 0
0.156675 -0.00864266 0
0.190017 -0.00953474 0
0.164911 -0.00913533 0
0.134561 -0.00480243 0
0.190017 -0.00953474 0
0.132646 -0.00415557 0
0.183459 -0.00890484 0
0.190017 -0.00953474 0
0.164911 -0.00913533 0
0.183459 -0.00890484 0
0.17171 -0.010555 0
0.132646 -0.00415557 0
0.183459 -0.00890484 0
0.131107 -0.00340468 0
0.176851 -0.00771691 0
0.183459 -0.00890484 0
0.17171 -0.010555 0
0.176851 -0.00771691 0
0.177619 -0.00802775 0
0.00673183 -0.0213888 0
0.0035083 -0.0119531 0
0.015473 -0.0229921 0
0.0109139 -0.0134444 0
0.0035083 -0.0119531 0
0.0521768 0.00338846 0
0.0109139 -0.0134444 0
0.0743473 0.00500697 0
0.015473 -0.0229921 0
0.0109139 -0.0134444 0
0.0209838 -0.0163832 0
0.0199744 -0.00911871 0
0.0109139 -0.0134444 0
0.0743473 0.00500697 0
0.0199744 -0.00911871 0
0.093339 0.00489567 0
0.0209838 -0.0163832 0
0.0199744 -0.00911871 0
0.0281911 -0.0136336 0
0.0255971 -0.00618133 0
0.0199744 -0.00911871 0
0.093339 0.00489567 0
0.0255971 -0.00618133 0
0.109776 0.00574405 0
0.0281911 -0.0136336 0
0.0255971 -0.00618133 0
0.0365295 -0.0118502 0
0.0304319 -0.00427387 0
0.0255971 -0.00618133 0
0.109776 0.00574405 0
0.0304319 -0.00427387 0
0.123794 0.00635548 0
0.0365295 -0.0118502 0
0.0304319 -0.00427387 0
0.0407222 -0.00158668 0
0.0338453 -0.000801452 0
0.0304319 -0.00427387 0
0.123794 0.00635548 0
0.0338453 -0.000801452 0
0.136021 0.00753381 0
0.0407222 -0.00158668 0
0.0338453 -0.000801452 0
0.03566 0.0104337 0
0.0335248 0.0027079 0
0.0338453 -0.000801452 0
0.136021 0.00753381 0
0.0335248 0.0027079 0
0.14699 0.00759362 0
0.03566 0.0104337 0
0.0335248 0.0027079 0
0.0264787 0.00712462 0
0.0324283 0.00247531 0
0.0335248 0.0027079 0
0.14699 0.00759362 0
0.0324283 0.00247531 0
0.156771 0.00867392 0
0.0264787 0.00712462 0
0.0324283 0.00247531 0
0.0181027 0.00157839 0
0.0360795 0.000470014 0
0.0324283 0.00247531 0
0.156771 0.00867392 0
0.0360795 0.000470014 0
0.165028 0.00916671 0
0.0181027 0.00157839 0
0.0360795 0.000470014 0
0.0116615 0.0102342 0
0.039114 0.00703277 0
0.0360795 0.000470014 0
0.165028 0.00916671 0
0.039114 0.00703277 0
0.171842 0.0105945 0
0.0116615 0.0102342 0
0.039114 0.00703277 0
0.00861394 0.0222645 0
0.0318621 0.0128999 0
0.039114 0.00703277 0
0.171842 0.0105945 0
0.0318621 0.0128999 0
0.177763 0.00805132 0
0 0 0
-0.00037382 0.0146126 0
0 0 0
0.00117996 0.0139081 0
-0.00037382 0.0146126 0
-0.0016523 0.0285255 0
0.00117996 0.0139081 0
0.00273011 0.0290808 0
0 0 0
0.00117996 0.0139081 0
0 0 0
0.000106124 0.0126724 0
0.00117996 0.0139081 0
0.00273011 0.0290808 0
0.000106124 0.0126724 0
0.00660978 0.021171 0
-0.0016523 0.0285255 0
-0.00259343 0.0270065 0
0.00273011 0.0290808 0
0.00402309 0.0262795 0
-0.00259343 0.0270065 0
-0.0019536 0.02559 0
0.00402309 0.0262795 0
0.00685013 0.0224711 0
0.00273011 0.0290808 0
0.00402309 0.0262795 0
0.00660978 0.021171 0
0.0153105 0.0228441 0
0.00402309 0.0262795 0
0.00685013 0.0224711 0
0.0153105 0.0228441 0
0.0208138 0.0162776 0
-0.020278 -0.0494821 0
-0.042723 -0.0673595 0
-0.00912915 -0.0298724 0
-0.0298102 -0.0367118 0
-0.042723 -0.0673595 0
-0.0668191 -0.0819391 0
-0.0298102 -0.0367118 0
-0.0608628 -0.0485711 0
-0.00912915 -0.0298724 0
-0.0298102 -0.0367118 0
0.00872786 -0.0222886 0
-0.00313402 -0.00592508 0
-0.0298102 -0.0367118 0
-0.0608628 -0.0485711 0
-0.00313402 -0.00592508 0
-0.0366211 -0.0045918 0
0.00872786 -0.0222886 0
-0.00313402 -0.00592508 0
0.0317966 -0.0128689 0
0.0295634 0.000770232 0
-0.00313402 -0.00592508 0
-0.0366211 -0.0045918 0
0.0295634 0.000770232 0
0.0461403 0.00828739 0
0.0317966 -0.0128689 0
0.0295634 0.000770232 0
0.177619 -0.00802775 0
0.18217 -0.00730487 0
0.0295634 0.000770232 0
0.0461403 0.00828739 0
0.18217 -0.00730487 0
0.183937 -0.00492133 0
-0.0668191 -0.0819391 0
-0.0794407 -0.0103152 0
-0.0608628 -0.0485711 0
-0.0750616 -0.0112245 0
-0.0794407 -0.0103152 0
-0.0655621 0.0574313 0
-0.0750616 -0.0112245 0
-0.0616201 0.0259869 0
-0.0608628 -0.0485711 0
-0.0750616 -0.0112245 0
-0.0366211 -0.0045918 0
-0.0422575 -0.0311888 0
-0.0750616 -0.0112245 0
-0.0616201 0.0259869 0
-0.0422575 -0.0311888 0
-0.0379637 0.024541 0
-0.0655621 0.0574313 0
-0.0456027 0.0481219 0
-0.0616201 0.0259869 0
-0.0472793 0.0394645 0
-0.0456027 0.0481219 0
-0.0421955 0.0400365 0
-0.0472793 0.0394645 0
-0.0327459 0.0276565 0
-0.0616201 0.0259869 0
-0.0472793 0.0394645 0
-0.0379637 0.024541 0
-0.0414568 0.0286518 0
-0.0472793 0.0394645 0
-0.0327459 0.0276565 0
-0.0414568 0.0286518 0
-0.0219979 -0.00110437 0
-0.0421955 0.0400365 0
-0.0372172 0.0269801 0
-0.0327459 0.0276565 0
-0.0017935 -0.00265328 0
-0.0372172 0.0269801 0
-0.0114176 0.0121532 0
-0.0017935 -0.00265328 0
0.0133145 -0.00644004 0
-0.0327459 0.0276565 0
-0.0017935 -0.00265328 0
-0.0219979 -0.00110437 0
-0.0227149 -0.00888759 0
-0.0017935 -0.00265328 0
0.0133145 -0.00644004 0
-0.0227149 -0.00888759 0
-0.0295733 -0.00953483 0
0 0 0
0 0 0
-0.00340141 0.00672906 0
-0.0384037 0.0339659 0
0 0 0
0 0 0
-0.0384037 0.0339659 0
-0.0378114 -0.0335091 0
-0.00340141 0.00672906 0
-0.0384037 0.0339659 0
-0.0110098 0.0271201 0
0.0122193 0.0272461 0
-0.0384037 0.0339659 0
-0.0378114 -0.0335091 0
0.0122193 0.0272461 0
0.0142054 -0.0290516 0
-0.0110098 0.0271201 0
0.0122193 0.0272461 0
-0.0115339 0.0370768 0
0.00685851 -0.0301463 0
0.0122193 0.0272461 0
0.0142054 -0.0290516 0
0.00685851 -0.0301463 0
-0.00406739 0.0380063 0
-0.0115339 0.0370768 0
0.00685851 -0.0301463 0
-0.0114176 0.0121532 0
-0.00637494 -0.0306914 0
0.00685851 -0.0301463 0
-0.00406739 0.0380063 0
-0.00637494 -0.0306914 0
-0.0207718 0.0672152 0
-0.0114176 0.0121532 0
-0.00637494 -0.0306914 0
0.0133145 -0.00644004 0
-0.0100118 0.00878528 0
-0.00637494 -0.0306914 0
-0.0207718 0.0672152 0
-0.0100118 0.00878528 0
-0.0202975 0.0559979 0
0.0133145 -0.00644004 0
-0.0100118 0.00878528 0
-0.0295733 -0.00953483 0
-0.0108954 0.0171946 0
-0.0100118 0.00878528 0
-0.0202975 0.0559979 0
-0.0108954 0.0171946 0
0.0103917 0.0349499 0
0 0 0
0 0 0
-0.0378114 -0.0335091 0
-0.0189253 0.0103621 0
0 0 0
0 0 0
-0.0189253 0.0103621 0
-0.0238023 -0.00376551 0
-0.0378114 -0.0335091 0
-0.0189253 0.0103621 0
0.0142054 -0.0290516 0
-0.0297033 0.0339148 0
-0.0189253 0.0103621 0
-0.0238023 -0.00376551 0
-0.0297033 0.0339148 0
-0.0446188 -0.00252651 0
0.0142054 -0.0290516 0
-0.0297033 0.0339148 0
-0.00406739 0.0380063 0
-0.0285676 0.0465486 0
-0.0297033 0.0339148 0
-0.0446188 -0.00252651 0
-0.0285676 0.0465486 0
-0.0267614 0.0010146 0
-0.00406739 0.0380063 0
-0.0285676 0.0465486 0
-0.0207718 0.0672152 0
-0.00337108 0.0255394 0
-0.0285676 0.0465486 0
-0.0267614 0.0010146 0
-0.00337108 0.0255394 0
0.0178759 -0.00476866 0
-0.0207718 0.0672152 0
-0.00337108 0.0255394 0
-0.0202975 0.0559979 0
-0.0161083 0.0114502 0
-0.00337108 0.0255394 0
0.0178759 -0.00476866 0
-0.0161083 0.0114502 0
-0.0162363 -0.0151606 0
-0.0202975 0.0559979 0
-0.0161083 0.0114502 0
0.0103917 0.0349499 0
0.0212504 0.0145278 0
-0.0161083 0.0114502 0
-0.0162363 -0.0151606 0
0.0212504 0.0145278 0
0.00679586 -0.00133312 0
0 0 0
0 0 0
-0.0238023 -0.00376551 0
-0.0175028 -0.00417247 0
0 0 0
0 0 0
-0.0175028 -0.00417247 0
-0.00433718 -0.0109035 0
-0.0238023 -0.00376551 0
-0.0175028 -0.00417247 0
-0.0446188 -0.00252651 0
-0.0425457 -0.0158864 0
-0.0175028 -0.00417247 0
-0.00433718 -0.0109035 0
-0.0425457 -0.0158864 0
-0.0289446 -0.0298722 0
-0.0446188 -0.00252651 0
-0.0425457 -0.0158864 0
-0.0267614 0.0010146 0
-0.0303437 -0.0180289 0
-0.0425457 -0.0158864 0
-0.0289446 -0.0298722 0
-0.0303437 -0.0180289 0
-0.0309939 -0.0427658 0
-0.0267614 0.0010146 0
-0.0303437 -0.0180289 0
0.0178759 -0.00476866 0
0.00988728 0.000784454 0
-0.0303437 -0.0180289 0
-0.0309939 -0.0427658 0
0.00988728 0.000784454 0
-0.0107808 -0.0367756 0
0.0178759 -0.00476866 0
0.00988728 0.000784454 0
-0.0162363 -0.0151606 0
-0.00409363 0.00630406 0
0.00988728 0.000784454 0
-0.0107808 -0.0367756 0
-0.00409363 0.00630406 0
-0.000621896 -0.0222581 0
-0.0162363 -0.0151606 0
-0.00409363 0.00630406 0
0.00679586 -0.00133312 0
0.00227539 -0.0171208 0
-0.00409363 0.00630406 0
-0.000621896 -0.0222581 0
0.00227539 -0.0171208 0
0.00299025 -0.0039277 0
0 0 0
0 0 0
-0.00433718 -0.0109035 0
0.00258415 0.00284264 0
0 0 0
0 0 0
0.00258415 0.00284264 0
0 0 0
-0.00433718 -0.0109035 0
0.00258415 0.00284264 0
-0.0289446 -0.0298722 0
-0.0109112 -0.00715873 0
0.00258415 0.00284264 0
0 0 0
-0.0109112 -0.00715873 0
0 0 0
-0.0289446 -0.0298722 0
-0.0109112 -0.00715873 0
-0.0309939 -0.0427658 0
-0.0133277 -0.0359793 0
-0.0109112 -0.00715873 0
0 0 0
-0.0133277 -0.0359793 0
0 0 0
-0.0309939 -0.0427658 0
-0.0133277 -0.0359793 0
-0.0107808 -0.0367756 0
-0.00994405 -0.0634028 0
-0.0133277 -0.0359793 0
0 0 0
-0.00994405 -0.0634028 0
0 0 0
-0.0107808 -0.0367756 0
-0.00994405 -0.0634028 0
-0.000621896 -0.0222581 0
-0.00203238 -0.0775031 0
-0.00994405 -0.0634028 0
0 0 0
-0.00203238 -0.0775031 0
0 0 0
-0.000621896 -0.0222581 0
-0.00203238 -0.0775031 0
0.00299025 -0.0039277 0
-0.00516988 -0.0858971 0
-0.00203238 -0.0775031 0
0 0 0
-0.00516988 -0.0858971 0
0 0 0
0.177763 0.00805132 0
0.176736 0.00773203 0
0.182322 0.00733424 0
0.17111 0.00587744 0
0.176736 0.00773203 0
0.131031 0.00340859 0
0.17111 0.00587744 0
0.129879 0.00265153 0
0.182322 0.00733424 0
0.17111 0.00587744 0
0.184086 0.00493376 0
0.167684 0.00384144 0
0.17111 0.00587744 0
0.129879 0.00265153 0
0.167684 0.00384144 0
0.128764 0.00188368 0
0.165419 0.00679226 0
0.107452 0.00598896 0
0.16143 0.00664361 0
0.110014 0.00579402 0
0.107452 0.00598896 0
0.227267 -3.71139e-06 0
0.110014 0.00579402 0
0.214656 -3.47822e-06 0
0.16143 0.00664361 0
0.110014 0.00579402 0
0.15744 0.00658028 0
0.112143 0.00529492 0
0.110014 0.00579402 0
0.214656 -3.47822e-06 0
0.112143 0.00529492 0
0.203145 -2.95269e-06 0
0.15744 0.00658028 0
0.112143 0.00529492 0
0.153359 0.00622088 0
0.114099 0.00504311 0
0.112143 0.00529492 0
0.203145 -2.95269e-06 0
0.114099 0.00504311 0
0.192541 -2.48643e-06 0
0.153359 0.00622088 0
0.114099 0.00504311 0
0.149739 0.00566119 0
0.115797 0.00456632 0
0.114099 0.00504311 0
0.192541 -2.48643e-06 0
0.115797 0.00456632 0
0.182835 -1.02447e-06 0
0.149739 0.00566119 0
0.115797 0.00456632 0
0.146573 0.0052858 0
0.117209 0.0043332 0
0.115797 0.00456632 0
0.182835 -1.02447e-06 0
0.117209 0.0043332 0
0.174044 3.7389e-07 0
0.146573 0.0052858 0
0.117209 0.0043332 0
0.143713 0.00514255 0
0.1183 0.00393024 0
0.117209 0.0043332 0
0.174044 3.7389e-07 0
0.1183 0.00393024 0
0.166164 2.00818e-06 0
0.143713 0.00514255 0
0.1183 0.00393024 0
0.141113 0.00496735 0
0.119027 0.00387712 0
0.1183 0.00393024 0
0.166164 2.00818e-06 0
0.119027 0.00387712 0
0.159103 3.09134e-06 0
0.141113 0.00496735 0
0.119027 0.00387712 0
0.138735 0.00480834 0
0.119402 0.00346515 0
0.119027 0.00387712 0
0.159103 3.09134e-06 0
0.119402 0.00346515 0
0.152719 3.99486e-06 0
0.138735 0.00480834 0
0.119402 0.00346515 0
0.136551 0.00459865 0
0.119421 0.00348807 0
0.119402 0.00346515 0
0.152719 3.99486e-06 0
0.119421 0.00348807 0
0.146998 5.84934e-06 0
0.136551 0.00459865 0
0.119421 0.00348807 0
0.134468 0.00481444 0
0.119149 0.00312991 0
0.119421 0.00348807 0
0.146998 5.84934e-06 0
0.119149 0.00312991 0
0.141948 6.64567e-06 0
0.134468 0.00481444 0
0.119149 0.00312991 0
0.13256 0.00416259 0
0.118742 0.00313147 0
0.119149 0.00312991 0
0.141948 6.64567e-06 0
0.118742 0.00313147 0
0.137421 4.35996e-06 0
0.13256 0.00416259 0
0.118742 0.00313147 0
0.131031 0.00340859 0
0.118377 0.00240026 0