# vtk DataFile Version 3.0
#This file was generated by the deal.II library on 2026/3/26 at 11:14:36
ASCII
DATASET UNSTRUCTURED_GRID

POINTS 3648 double
0 0 0
0.214286 0 0
0 0.25 0
0.214286 0.25 0
0 0.25 0
0.214286 0.25 0
0 0.5 0
0.214286 0.5 0
0.214286 0 0
0.428571 0 0
0.214286 0.25 0
0.428571 0.25 0
0.214286 0.25 0
0.428571 0.25 0
0.214286 0.5 0
0.428571 0.5 0
0.428571 0 0
0.642857 0 0
0.428571 0.25 0
0.642857 0.25 0
0.428571 0.25 0
0.642857 0.25 0
0.428571 0.5 0
0.642857 0.5 0
0.428571 0.5 0
0.642857 0.5 0
0.428571 0.75 0
0.642857 0.75 0
0.642857 0 0
0.857143 0 0
0.642857 0.25 0
0.857143 0.25 0
0.642857 0.25 0
0.857143 0.25 0
0.642857 0.5 0
0.857143 0.5 0
0.642857 0.5 0
0.857143 0.5 0
0.642857 0.75 0
0.857143 0.75 0
0.857143 0 0
1.07143 0 0
0.857143 0.25 0
1.07143 0.25 0
0.857143 0.25 0
1.07143 0.25 0
0.857143 0.5 0
1.07143 0.5 0
0.857143 0.5 0
1.07143 0.5 0
0.857143 0.75 0
1.07143 0.75 0
1.07143 0 0
1.28571 0 0
1.07143 0.25 0
1.28571 0.25 0
1.07143 0.25 0
1.28571 0.25 0
1.07143 0.5 0
1.28571 0.5 0
1.07143 0.5 0
1.28571 0.5 0
1.07143 0.75 0
1.28571 0.75 0
1.28571 0 0
1.5 0 0
1.28571 0.25 0
1.5 0.25 0
1.28571 0.25 0
1.5 0.25 0
1.28571 0.5 0
1.5 0.5 0
1.5 0 0
1.71429 0 0
1.5 0.25 0
1.71429 0.25 0
1.5 0.25 0
1.71429 0.25 0
1.5 0.5 0
1.71429 0.5 0
1.71429 0 0
1.92857 0 0
1.71429 0.25 0
1.92857 0.25 0
1.71429 0.25 0
1.92857 0.25 0
1.71429 0.5 0
1.92857 0.5 0
1.92857 0 0
2.14286 0 0
1.92857 0.25 0
2.14286 0.25 0
1.92857 0.25 0
2.14286 0.25 0
1.92857 0.5 0
2.14286 0.5 0
0 3 0
0 2.75 0
0.214286 3 0
0.214286 2.75 0
0.214286 3 0
0.214286 2.75 0
0.428571 3 0
0.428571 2.75 0
0.428571 3 0
0.428571 2.75 0
0.642857 3 0
0.642857 2.75 0
0.642857 3 0
0.642857 2.75 0
0.857143 3 0
0.857143 2.75 0
0.857143 3 0
0.857143 2.75 0
1.07143 3 0
1.07143 2.75 0
1.07143 3 0
1.07143 2.75 0
1.28571 3 0
1.28571 2.75 0
1.28571 3 0
1.28571 2.75 0
1.5 3 0
1.5 2.75 0
1.5 3 0
1.5 2.75 0
1.71429 3 0
1.71429 2.75 0
1.71429 3 0
1.71429 2.75 0
1.92857 3 0
1.92857 2.75 0
1.92857 3 0
1.92857 2.75 0
2.14286 3 0
2.14286 2.75 0
0 2.75 0
0 2.5 0
0.214286 2.75 0
0.214286 2.5 0
0.214286 2.75 0
0.214286 2.5 0
0.428571 2.75 0
0.428571 2.5 0
0.428571 2.75 0
0.428571 2.5 0
0.642857 2.75 0
0.642857 2.5 0
0.642857 2.75 0
0.642857 2.5 0
0.857143 2.75 0
0.857143 2.5 0
0.857143 2.75 0
0.857143 2.5 0
1.07143 2.75 0
1.07143 2.5 0
1.07143 2.75 0
1.07143 2.5 0
1.28571 2.75 0
1.28571 2.5 0
1.28571 2.75 0
1.28571 2.5 0
1.5 2.75 0
1.5 2.5 0
1.5 2.75 0
1.5 2.5 0
1.71429 2.75 0
1.71429 2.5 0
1.71429 2.75 0
1.71429 2.5 0
1.92857 2.75 0
1.92857 2.5 0
1.92857 2.75 0
1.92857 2.5 0
2.14286 2.75 0
2.14286 2.5 0
0.428571 2.5 0
0.428571 2.25 0
0.642857 2.5 0
0.642857 2.25 0
0.642857 2.5 0
0.642857 2.25 0
0.857143 2.5 0
0.857143 2.25 0
0.857143 2.5 0
0.857143 2.25 0
1.07143 2.5 0
1.07143 2.25 0
1.07143 2.5 0
1.07143 2.25 0
1.28571 2.5 0
1.28571 2.25 0
0.214286 0.75 0
0.321429 0.75 0
0.214286 0.875 0
0.321429 0.875 0
0.321429 0.75 0
0.428571 0.75 0
0.321429 0.875 0
0.428571 0.875 0
0.214286 0.875 0
0.321429 0.875 0
0.214286 1 0
0.321429 1 0
0.321429 0.875 0
0.428571 0.875 0
0.321429 1 0
0.428571 1 0
0.428571 0.75 0
0.535714 0.75 0
0.428571 0.875 0
0.535714 0.875 0
0.535714 0.75 0
0.642857 0.75 0
0.535714 0.875 0
0.642857 0.875 0
0.428571 0.875 0
0.535714 0.875 0
0.428571 1 0
0.535714 1 0
0.535714 0.875 0
0.642857 0.875 0
0.535714 1 0
0.642857 1 0
0.642857 0.75 0
0.75 0.75 0
0.642857 0.875 0
0.75 0.875 0
0.75 0.75 0
0.857143 0.75 0
0.75 0.875 0
0.857143 0.875 0
0.642857 0.875 0
0.75 0.875 0
0.642857 1 0
0.75 1 0
0.75 0.875 0
0.857143 0.875 0
0.75 1 0
0.857143 1 0
0.857143 0.75 0
0.964286 0.75 0
0.857143 0.875 0
0.964286 0.875 0
0.964286 0.75 0
1.07143 0.75 0
0.964286 0.875 0
1.07143 0.875 0
0.857143 0.875 0
0.964286 0.875 0
0.857143 1 0
0.964286 1 0
0.964286 0.875 0
1.07143 0.875 0
0.964286 1 0
1.07143 1 0
1.07143 0.75 0
1.17857 0.75 0
1.07143 0.875 0
1.17857 0.875 0
1.17857 0.75 0
1.28571 0.75 0
1.17857 0.875 0
1.28571 0.875 0
1.07143 0.875 0
1.17857 0.875 0
1.07143 1 0
1.17857 1 0
1.17857 0.875 0
1.28571 0.875 0
1.17857 1 0
1.28571 1 0
0.214286 2 0
0.214286 1.875 0
0.321429 2 0
0.321429 1.875 0
0.214286 1.875 0
0.214286 1.75 0
0.321429 1.875 0
0.321429 1.75 0
0.321429 2 0
0.321429 1.875 0
0.428571 2 0
0.428571 1.875 0
0.321429 1.875 0
0.321429 1.75 0
0.428571 1.875 0
0.428571 1.75 0
0.428571 2 0
0.428571 1.875 0
0.535714 2 0
0.535714 1.875 0
0.428571 1.875 0
0.428571 1.75 0
0.535714 1.875 0
0.535714 1.75 0
0.535714 2 0
0.535714 1.875 0
0.642857 2 0
0.642857 1.875 0
0.535714 1.875 0
0.535714 1.75 0
0.642857 1.875 0
0.642857 1.75 0
0.642857 2 0
0.642857 1.875 0
0.75 2 0
0.75 1.875 0
0.642857 1.875 0
0.642857 1.75 0
0.75 1.875 0
0.75 1.75 0
0.75 2 0
0.75 1.875 0
0.857143 2 0
0.857143 1.875 0
0.75 1.875 0
0.75 1.75 0
0.857143 1.875 0
0.857143 1.75 0
0.857143 2 0
0.857143 1.875 0
0.964286 2 0
0.964286 1.875 0
0.857143 1.875 0
0.857143 1.75 0
0.964286 1.875 0
0.964286 1.75 0
0.964286 2 0
0.964286 1.875 0
1.07143 2 0
1.07143 1.875 0
0.964286 1.875 0
0.964286 1.75 0
1.07143 1.875 0
1.07143 1.75 0
1.07143 2 0
1.07143 1.875 0
1.17857 2 0
1.17857 1.875 0
1.07143 1.875 0
1.07143 1.75 0
1.17857 1.875 0
1.17857 1.75 0
1.17857 2 0
1.17857 1.875 0
1.28571 2 0
1.28571 1.875 0
1.17857 1.875 0
1.17857 1.75 0
1.28571 1.875 0
1.28571 1.75 0
0.214286 1.25 0
0.214286 1.125 0
0.321429 1.25 0
0.321429 1.125 0
0.214286 1.125 0
0.214286 1 0
0.321429 1.125 0
0.321429 1 0
0.321429 1.25 0
0.321429 1.125 0
0.428571 1.25 0
0.428571 1.125 0
0.321429 1.125 0
0.321429 1 0
0.428571 1.125 0
0.428571 1 0
0.428571 1.25 0
0.428571 1.125 0
0.535714 1.25 0
0.535714 1.125 0
0.428571 1.125 0
0.428571 1 0
0.535714 1.125 0
0.535714 1 0
0.535714 1.25 0
0.535714 1.125 0
0.642857 1.25 0
0.642857 1.125 0
0.535714 1.125 0
0.535714 1 0
0.642857 1.125 0
0.642857 1 0
0.642857 1.25 0
0.642857 1.125 0
0.75 1.25 0
0.75 1.125 0
0.642857 1.125 0
0.642857 1 0
0.75 1.125 0
0.75 1 0
0.75 1.25 0
0.75 1.125 0
0.857143 1.25 0
0.857143 1.125 0
0.75 1.125 0
0.75 1 0
0.857143 1.125 0
0.857143 1 0
0.857143 1.25 0
0.857143 1.125 0
0.964286 1.25 0
0.964286 1.125 0
0.857143 1.125 0
0.857143 1 0
0.964286 1.125 0
0.964286 1 0
0.964286 1.25 0
0.964286 1.125 0
1.07143 1.25 0
1.07143 1.125 0
0.964286 1.125 0
0.964286 1 0
1.07143 1.125 0
1.07143 1 0
1.07143 1.25 0
1.07143 1.125 0
1.17857 1.25 0
1.17857 1.125 0
1.07143 1.125 0
1.07143 1 0
1.17857 1.125 0
1.17857 1 0
1.17857 1.25 0
1.17857 1.125 0
1.28571 1.25 0
1.28571 1.125 0
1.17857 1.125 0
1.17857 1 0
1.28571 1.125 0
1.28571 1 0
0.214286 2.25 0
0.214286 2.125 0
0.321429 2.25 0
0.321429 2.125 0
0.214286 2.125 0
0.214286 2 0
0.321429 2.125 0
0.321429 2 0
0.321429 2.25 0
0.321429 2.125 0
0.428571 2.25 0
0.428571 2.125 0
0.321429 2.125 0
0.321429 2 0
0.428571 2.125 0
0.428571 2 0
0.428571 2.25 0
0.428571 2.125 0
0.535714 2.25 0
0.535714 2.125 0
0.428571 2.125 0
0.428571 2 0
0.535714 2.125 0
0.535714 2 0
0.535714 2.25 0
0.535714 2.125 0
0.642857 2.25 0
0.642857 2.125 0
0.535714 2.125 0
0.535714 2 0
0.642857 2.125 0
0.642857 2 0
0.642857 2.25 0
0.642857 2.125 0
0.75 2.25 0
0.75 2.125 0
0.642857 2.125 0
0.642857 2 0
0.75 2.125 0
0.75 2 0
0.75 2.25 0
0.75 2.125 0
0.857143 2.25 0
0.857143 2.125 0
0.75 2.125 0
0.75 2 0
0.857143 2.125 0
0.857143 2 0
0.857143 2.25 0
0.857143 2.125 0
0.964286 2.25 0
0.964286 2.125 0
0.857143 2.125 0
0.857143 2 0
0.964286 2.125 0
0.964286 2 0
0.964286 2.25 0
0.964286 2.125 0
1.07143 2.25 0
1.07143 2.125 0
0.964286 2.125 0
0.964286 2 0
1.07143 2.125 0
1.07143 2 0
1.07143 2.25 0
1.07143 2.125 0
1.17857 2.25 0
1.17857 2.125 0
1.07143 2.125 0
1.07143 2 0
1.17857 2.125 0
1.17857 2 0
1.17857 2.25 0
1.17857 2.125 0
1.28571 2.25 0
1.28571 2.125 0
1.17857 2.125 0
1.17857 2 0
1.28571 2.125 0
1.28571 2 0
0 0.5 0
0.107143 0.5 0
0 0.625 0
0.107143 0.625 0
0.107143 0.5 0
0.214286 0.5 0
0.107143 0.625 0
0.214286 0.625 0
0 0.625 0
0.107143 0.625 0
0 0.75 0
0.107143 0.75 0
0.107143 0.625 0
0.214286 0.625 0
0.107143 0.75 0
0.214286 0.75 0
0.214286 0.5 0
0.321429 0.5 0
0.214286 0.625 0
0.321429 0.625 0
0.321429 0.5 0
0.428571 0.5 0
0.321429 0.625 0
0.428571 0.625 0
0.214286 0.625 0
0.321429 0.625 0
0.214286 0.75 0
0.321429 0.75 0
0.321429 0.625 0
0.428571 0.625 0
0.321429 0.75 0
0.428571 0.75 0
1.28571 0.5 0
1.39286 0.5 0
1.28571 0.625 0
1.39286 0.625 0
1.39286 0.5 0
1.5 0.5 0
1.39286 0.625 0
1.5 0.625 0
1.28571 0.625 0
1.39286 0.625 0
1.28571 0.75 0
1.39286 0.75 0
1.39286 0.625 0
1.5 0.625 0
1.39286 0.75 0
1.5 0.75 0
1.28571 0.75 0
1.39286 0.75 0
1.28571 0.875 0
1.39286 0.875 0
1.39286 0.75 0
1.5 0.75 0
1.39286 0.875 0
1.5 0.875 0
1.28571 0.875 0
1.39286 0.875 0
1.28571 1 0
1.39286 1 0
1.39286 0.875 0
1.5 0.875 0
1.39286 1 0
1.5 1 0
1.5 0.5 0
1.60714 0.5 0
1.5 0.625 0
1.60714 0.625 0
1.60714 0.5 0
1.71429 0.5 0
1.60714 0.625 0
1.71429 0.625 0
1.5 0.625 0
1.60714 0.625 0
1.5 0.75 0
1.60714 0.75 0
1.60714 0.625 0
1.71429 0.625 0
1.60714 0.75 0
1.71429 0.75 0
1.71429 0.5 0
1.82143 0.5 0
1.71429 0.625 0
1.82143 0.625 0
1.82143 0.5 0
1.92857 0.5 0
1.82143 0.625 0
1.92857 0.625 0
1.71429 0.625 0
1.82143 0.625 0
1.71429 0.75 0
1.82143 0.75 0
1.82143 0.625 0
1.92857 0.625 0
1.82143 0.75 0
1.92857 0.75 0
1.92857 0.5 0
2.03571 0.5 0
1.92857 0.625 0
2.03571 0.625 0
2.03571 0.5 0
2.14286 0.5 0
2.03571 0.625 0
2.14286 0.625 0
1.92857 0.625 0
2.03571 0.625 0
1.92857 0.75 0
2.03571 0.75 0
2.03571 0.625 0
2.14286 0.625 0
2.03571 0.75 0
2.14286 0.75 0
2.14286 0 0
2.25 0 0
2.14286 0.125 0
2.25 0.125 0
2.25 0 0
2.35714 0 0
2.25 0.125 0
2.35714 0.125 0
2.14286 0.125 0
2.25 0.125 0
2.14286 0.25 0
2.25 0.25 0
2.25 0.125 0
2.35714 0.125 0
2.25 0.25 0
2.35714 0.25 0
2.14286 0.25 0
2.25 0.25 0
2.14286 0.375 0
2.25 0.375 0
2.25 0.25 0
2.35714 0.25 0
2.25 0.375 0
2.35714 0.375 0
2.14286 0.375 0
2.25 0.375 0
2.14286 0.5 0
2.25 0.5 0
2.25 0.375 0
2.35714 0.375 0
2.25 0.5 0
2.35714 0.5 0
2.14286 0.5 0
2.25 0.5 0
2.14286 0.625 0
2.25 0.625 0
2.25 0.5 0
2.35714 0.5 0
2.25 0.625 0
2.35714 0.625 0
2.14286 0.625 0
2.25 0.625 0
2.14286 0.75 0
2.25 0.75 0
2.25 0.625 0
2.35714 0.625 0
2.25 0.75 0
2.35714 0.75 0
2.35714 0 0
2.46429 0 0
[...]
POINT_DATA 3648
VECTORS velocity double
0 0 0
0 0 0
0 0 0
-0.00727197 0.00824185 0
0 0 0
-0.00727197 0.00824185 0
0 0 0
-0.00184489 0.0193359 0
0 0 0
0 0 0
-0.00727197 0.00824185 0
-0.0269701 0.0144431 0
-0.00727197 0.00824185 0
-0.0269701 0.0144431 0
-0.00184489 0.0193359 0
-0.00524322 0.030912 0
0 0 0
0 0 0
-0.0269701 0.0144431 0
-0.0525082 0.0153257 0
-0.0269701 0.0144431 0
-0.0525082 0.0153257 0
-0.00524322 0.030912 0
-0.00765426 0.0320121 0
-0.00524322 0.030912 0
-0.00765426 0.0320121 0
0.0177168 0.0194622 0
0.03939 0.021199 0
0 0 0
0 0 0
-0.0525082 0.0153257 0
-0.0686548 0.00392768 0
-0.0525082 0.0153257 0
-0.0686548 0.00392768 0
-0.00765426 0.0320121 0
-0.00355659 0.000918206 0
-0.00765426 0.0320121 0
-0.00355659 0.000918206 0
0.03939 0.021199 0
0.0471417 -0.00261627 0
0 0 0
0 0 0
-0.0686548 0.00392768 0
-0.0598838 -0.0133745 0
-0.0686548 0.00392768 0
-0.0598838 -0.0133745 0
-0.00355659 0.000918206 0
-0.000512514 -0.0241264 0
-0.00355659 0.000918206 0
-0.000512514 -0.0241264 0
0.0471417 -0.00261627 0
0.0342241 -0.00899006 0
0 0 0
0 0 0
-0.0598838 -0.0133745 0
-0.0195409 -0.0351205 0
-0.0598838 -0.0133745 0
-0.0195409 -0.0351205 0
-0.000512514 -0.0241264 0
-0.0221691 -0.0457981 0
-0.000512514 -0.0241264 0
-0.0221691 -0.0457981 0
0.0342241 -0.00899006 0
0.0208177 -0.0205539 0
0 0 0
0 0 0
-0.0195409 -0.0351205 0
0.0514401 -0.0486765 0
-0.0195409 -0.0351205 0
0.0514401 -0.0486765 0
-0.0221691 -0.0457981 0
-0.0600993 -0.0754257 0
0 0 0
0 0 0
0.0514401 -0.0486765 0
0.0619722 0.0359872 0
0.0514401 -0.0486765 0
0.0619722 0.0359872 0
-0.0600993 -0.0754257 0
-0.0578022 0.0459845 0
0 0 0
0 0 0
0.0619722 0.0359872 0
0.0196771 0.0128404 0
0.0619722 0.0359872 0
0.0196771 0.0128404 0
-0.0578022 0.0459845 0
-0.0435555 0.0360942 0
0 0 0
0 0 0
0.0196771 0.0128404 0
-0.017162 0.0288171 0
0.0196771 0.0128404 0
-0.017162 0.0288171 0
-0.0435555 0.0360942 0
-0.00776884 0.00618834 0
0 0 0
0 0 0
0 0 0
-0.00723956 -0.00820601 0
0 0 0
-0.00723956 -0.00820601 0
0 0 0
-0.0268888 -0.0144211 0
0 0 0
-0.0268888 -0.0144211 0
0 0 0
-0.0524147 -0.0153296 0
0 0 0
-0.0524147 -0.0153296 0
0 0 0
-0.0685915 -0.00395618 0
0 0 0
-0.0685915 -0.00395618 0
0 0 0
-0.0598736 0.0133424 0
0 0 0
-0.0598736 0.0133424 0
0 0 0
-0.0196394 0.0350176 0
0 0 0
-0.0196394 0.0350176 0
0 0 0
0.0512156 0.0486425 0
0 0 0
0.0512156 0.0486425 0
0 0 0
0.0618077 -0.035875 0
0 0 0
0.0618077 -0.035875 0
0 0 0
0.0196577 -0.0127775 0
0 0 0
0.0196577 -0.0127775 0
0 0 0
-0.0171693 -0.0288681 0
0 0 0
0 0 0
-0.00723956 -0.00820601 0
-0.0018424 -0.019263 0
-0.00723956 -0.00820601 0
-0.0018424 -0.019263 0
-0.0268888 -0.0144211 0
-0.00524526 -0.0308783 0
-0.0268888 -0.0144211 0
-0.00524526 -0.0308783 0
-0.0524147 -0.0153296 0
-0.00765416 -0.0320152 0
-0.0524147 -0.0153296 0
-0.00765416 -0.0320152 0
-0.0685915 -0.00395618 0
-0.00356201 -0.000998038 0
-0.0685915 -0.00395618 0
-0.00356201 -0.000998038 0
-0.0598736 0.0133424 0
-0.000538364 0.0240603 0
-0.0598736 0.0133424 0
-0.000538364 0.0240603 0
-0.0196394 0.0350176 0
-0.0221097 0.0456979 0
-0.0196394 0.0350176 0
-0.0221097 0.0456979 0
0.0512156 0.0486425 0
-0.0599786 0.075317 0
0.0512156 0.0486425 0
-0.0599786 0.075317 0
0.0618077 -0.035875 0
-0.0577241 -0.0458077 0
0.0618077 -0.035875 0
-0.0577241 -0.0458077 0
0.0196577 -0.0127775 0
-0.0435836 -0.0360367 0
0.0196577 -0.0127775 0
-0.0435836 -0.0360367 0
-0.0171693 -0.0288681 0
-0.00774776 -0.00616568 0
-0.00524526 -0.0308783 0
0.0176799 -0.0194487 0
-0.00765416 -0.0320152 0
0.0393351 -0.0211982 0
-0.00765416 -0.0320152 0
0.0393351 -0.0211982 0
-0.00356201 -0.000998038 0
0.0471085 0.00254991 0
-0.00356201 -0.000998038 0
0.0471085 0.00254991 0
-0.000538364 0.0240603 0
0.0342609 0.00897163 0
-0.000538364 0.0240603 0
0.0342609 0.00897163 0
-0.0221097 0.0456979 0
0.0208289 0.0204703 0
0.00306199 0.0149666 0
0.010451 0.0181491 0
0.00137201 0.00917286 0
0.00477303 0.0111868 0
0.010451 0.0181491 0
0.0177168 0.0194622 0
0.00477303 0.0111868 0
0.0126623 0.00885912 0
0.00137201 0.00917286 0
0.00477303 0.0111868 0
0.0531915 -0.00348993 0
0.0754025 -0.00524912 0
0.00477303 0.0111868 0
0.0126623 0.00885912 0
0.0754025 -0.00524912 0
0.094023 -0.0052932 0
0.0177168 0.0194622 0
0.0287734 0.0199838 0
0.0126623 0.00885912 0
0.0208212 0.00843118 0
0.0287734 0.0199838 0
0.03939 0.021199 0
0.0208212 0.00843118 0
0.0312793 0.00857735 0
0.0126623 0.00885912 0
0.0208212 0.00843118 0
0.094023 -0.0052932 0
0.109881 -0.00555523 0
0.0208212 0.00843118 0
0.0312793 0.00857735 0
0.109881 -0.00555523 0
0.123262 -0.0057768 0
0.03939 0.021199 0
0.0464449 0.0100305 0
0.0312793 0.00857735 0
0.0403479 0.00453002 0
0.0464449 0.0100305 0
0.0471417 -0.00261627 0
0.0403479 0.00453002 0
0.0433689 -0.000586628 0
0.0312793 0.00857735 0
0.0403479 0.00453002 0
0.123262 -0.0057768 0
0.135132 -0.00635263 0
0.0403479 0.00453002 0
0.0433689 -0.000586628 0
0.135132 -0.00635263 0
0.146081 -0.00699206 0
0.0471417 -0.00261627 0
0.0427405 -0.00622821 0
0.0433689 -0.000586628 0
0.043388 -0.00240185 0
0.0427405 -0.00622821 0
0.0342241 -0.00899006 0
0.043388 -0.00240185 0
0.0445467 -0.00357512 0
0.0433689 -0.000586628 0
0.043388 -0.00240185 0
0.146081 -0.00699206 0
0.155923 -0.00867369 0
0.043388 -0.00240185 0
0.0445467 -0.00357512 0
0.155923 -0.00867369 0
0.16453 -0.0098651 0
0.0342241 -0.00899006 0
0.0255472 -0.0140985 0
0.0445467 -0.00357512 0
0.0441423 -0.00828622 0
0.0255472 -0.0140985 0
0.0208177 -0.0205539 0
0.0441423 -0.00828622 0
0.0376535 -0.0125918 0
0.0445467 -0.00357512 0
0.0441423 -0.00828622 0
0.16453 -0.0098651 0
0.172027 -0.011323 0
0.0441423 -0.00828622 0
0.0376535 -0.0125918 0
0.172027 -0.011323 0
0.178459 -0.0102025 0
0.0532409 0.00350367 0
0.241051 0.0137033 0
0.0754929 0.00527048 0
0.234249 0.0127145 0
0.241051 0.0137033 0
0.162599 0.00674419 0
0.234249 0.0127145 0
0.157716 0.00630719 0
0.0754929 0.00527048 0
0.234249 0.0127145 0
0.0941434 0.00532308 0
0.227874 0.0114315 0
0.234249 0.0127145 0
0.157716 0.00630719 0
0.227874 0.0114315 0
0.153373 0.00568456 0
0.0941434 0.00532308 0
0.227874 0.0114315 0
0.110024 0.0055854 0
0.222003 0.0101458 0
0.227874 0.0114315 0
0.153373 0.00568456 0
0.222003 0.0101458 0
0.1496 0.00516932 0
0.110024 0.0055854 0
0.222003 0.0101458 0
0.123423 0.00580563 0
0.216686 0.00947526 0
0.222003 0.0101458 0
0.1496 0.00516932 0
0.216686 0.00947526 0
0.146246 0.00494493 0
0.123423 0.00580563 0
0.216686 0.00947526 0
0.135307 0.00637848 0
0.211587 0.00907477 0
0.216686 0.00947526 0
0.146246 0.00494493 0
0.211587 0.00907477 0
0.143227 0.00476118 0
0.135307 0.00637848 0
0.211587 0.00907477 0
0.146265 0.00701888 0
0.20625 0.00925812 0
0.211587 0.00907477 0
0.143227 0.00476118 0
0.20625 0.00925812 0
0.140432 0.00477267 0
0.146265 0.00701888 0
0.20625 0.00925812 0
0.156113 0.00869952 0
0.200418 0.00951179 0
0.20625 0.00925812 0
0.140432 0.00477267 0
0.200418 0.00951179 0
0.137737 0.00478304 0
0.156113 0.00869952 0
0.200418 0.00951179 0
0.164725 0.00989021 0
0.194016 0.0101759 0
0.200418 0.00951179 0
0.137737 0.00478304 0
0.194016 0.0101759 0
0.135073 0.00500357 0
0.164725 0.00989021 0
0.194016 0.0101759 0
0.172228 0.0113479 0
0.186995 0.0100758 0
0.194016 0.0101759 0
0.135073 0.00500357 0
0.186995 0.0100758 0
0.132552 0.00461656 0
0.172228 0.0113479 0
0.186995 0.0100758 0
0.178655 0.0102418 0
0.179673 0.00921879 0
0.186995 0.0100758 0
0.132552 0.00461656 0
0.179673 0.00921879 0
0.130384 0.00405689 0
0.16286 -0.00674177 0
0.241079 -0.0136788 0
0.157989 -0.00630466 0
0.234304 -0.0126896 0
0.241079 -0.0136788 0
0.0531915 -0.00348993 0
0.234304 -0.0126896 0
0.0754025 -0.00524912 0
0.157989 -0.00630466 0
0.234304 -0.0126896 0
0.153654 -0.00568082 0
0.227958 -0.011407 0
0.234304 -0.0126896 0
0.0754025 -0.00524912 0
0.227958 -0.011407 0
0.094023 -0.0052932 0
0.153654 -0.00568082 0
0.227958 -0.011407 0
0.149888 -0.00516662 0
0.222117 -0.0101232 0
0.227958 -0.011407 0
0.094023 -0.0052932 0
0.222117 -0.0101232 0
0.109881 -0.00555523 0
0.149888 -0.00516662 0
0.222117 -0.0101232 0
0.146537 -0.00494262 0
0.216829 -0.00945682 0
0.222117 -0.0101232 0
0.109881 -0.00555523 0
0.216829 -0.00945682 0
0.123262 -0.0057768 0
0.146537 -0.00494262 0
0.216829 -0.00945682 0
0.143518 -0.00475995 0
0.211757 -0.00905954 0
0.216829 -0.00945682 0
0.123262 -0.0057768 0
0.211757 -0.00905954 0
0.135132 -0.00635263 0
0.143518 -0.00475995 0
0.211757 -0.00905954 0
0.140722 -0.00477012 0
0.206446 -0.00924489 0
0.211757 -0.00905954 0
0.135132 -0.00635263 0
0.206446 -0.00924489 0
0.146081 -0.00699206 0
0.140722 -0.00477012 0
0.206446 -0.00924489 0
0.138024 -0.00478242 0
0.200637 -0.00950002 0
0.206446 -0.00924489 0
0.146081 -0.00699206 0
0.200637 -0.00950002 0
0.155923 -0.00867369 0
0.138024 -0.00478242 0
0.200637 -0.00950002 0
0.135354 -0.00500228 0
0.19426 -0.010165 0
0.200637 -0.00950002 0
0.155923 -0.00867369 0
0.19426 -0.010165 0
0.16453 -0.0098651 0
0.135354 -0.00500228 0
0.19426 -0.010165 0
0.132828 -0.00461472 0
0.187264 -0.0100638 0
0.19426 -0.010165 0
0.16453 -0.0098651 0
0.187264 -0.0100638 0
0.172027 -0.011323 0
0.132828 -0.00461472 0
0.187264 -0.0100638 0
0.130655 -0.00404995 0
0.179965 -0.00920181 0
0.187264 -0.0100638 0
0.172027 -0.011323 0
0.179965 -0.00920181 0
0.178459 -0.0102025 0
0.00304438 -0.0149182 0
0.00132722 -0.00915976 0
0.0104225 -0.0180823 0
0.00467816 -0.0111557 0
0.00132722 -0.00915976 0
0.0532409 0.00350367 0
0.00467816 -0.0111557 0
0.0754929 0.00527048 0
0.0104225 -0.0180823 0
0.00467816 -0.0111557 0
0.0176799 -0.0194487 0
0.012543 -0.00884811 0
0.00467816 -0.0111557 0
0.0754929 0.00527048 0
0.012543 -0.00884811 0
0.0941434 0.00532308 0
0.0176799 -0.0194487 0
0.012543 -0.00884811 0
0.0287261 -0.0199792 0
0.0207127 -0.00842422 0
0.012543 -0.00884811 0
0.0941434 0.00532308 0
0.0207127 -0.00842422 0
0.110024 0.0055854 0
0.0287261 -0.0199792 0
0.0207127 -0.00842422 0
0.0393351 -0.0211982 0
0.0311871 -0.00856953 0
0.0207127 -0.00842422 0
0.110024 0.0055854 0
0.0311871 -0.00856953 0
0.123423 0.00580563 0
0.0393351 -0.0211982 0
0.0311871 -0.00856953 0
0.0463927 -0.0100584 0
0.0402808 -0.00453287 0
0.0311871 -0.00856953 0
0.123423 0.00580563 0
0.0402808 -0.00453287 0
0.135307 0.00637848 0
0.0463927 -0.0100584 0
0.0402808 -0.00453287 0
0.0471085 0.00254991 0
0.0433484 0.000572416 0
0.0402808 -0.00453287 0
0.135307 0.00637848 0
0.0433484 0.000572416 0
0.146265 0.00701888 0
0.0471085 0.00254991 0
0.0433484 0.000572416 0
0.0427377 0.00617917 0
0.0434202 0.00239705 0
0.0433484 0.000572416 0
0.146265 0.00701888 0
0.0434202 0.00239705 0
0.156113 0.00869952 0
0.0427377 0.00617917 0
0.0434202 0.00239705 0
0.0342609 0.00897163 0
0.0446058 0.00358966 0
0.0434202 0.00239705 0
0.156113 0.00869952 0
0.0446058 0.00358966 0
0.164725 0.00989021 0
0.0342609 0.00897163 0
0.0446058 0.00358966 0
0.0256007 0.0140551 0
0.0442366 0.00827165 0
0.0446058 0.00358966 0
0.164725 0.00989021 0
0.0442366 0.00827165 0
0.172228 0.0113479 0
0.0256007 0.0140551 0
0.0442366 0.00827165 0
0.0208289 0.0204703 0
0.03785 0.0125516 0
0.0442366 0.00827165 0
0.172228 0.0113479 0
0.03785 0.0125516 0
0.178655 0.0102418 0
0 0 0
-0.000413334 0.00977597 0
0 0 0
-1.18418e-05 0.0102617 0
-0.000413334 0.00977597 0
-0.00184489 0.0193359 0
-1.18418e-05 0.0102617 0
-0.000495622 0.0209702 0
0 0 0
-1.18418e-05 0.0102617 0
0 0 0
-0.00128042 0.0117472 0
-1.18418e-05 0.0102617 0
-0.000495622 0.0209702 0
-0.00128042 0.0117472 0
0.00306199 0.0149666 0
-0.00184489 0.0193359 0
-0.00367658 0.0250973 0
-0.000495622 0.0209702 0
0.00157824 0.0231625 0
-0.00367658 0.0250973 0
-0.00524322 0.030912 0
0.00157824 0.0231625 0
0.00652422 0.0288746 0
-0.000495622 0.0209702 0
0.00157824 0.0231625 0
0.00306199 0.0149666 0
0.010451 0.0181491 0
0.00157824 0.0231625 0
0.00652422 0.0288746 0
0.010451 0.0181491 0
0.0177168 0.0194622 0
-0.0221691 -0.0457981 0
-0.0411959 -0.061796 0
1.24386e-05 -0.0283835 0
-0.01874 -0.0349952 0
-0.0411959 -0.061796 0
-0.0600993 -0.0754257 0
-0.01874 -0.0349952 0
-0.0506196 -0.0429682 0
1.24386e-05 -0.0283835 0
-0.01874 -0.0349952 0
0.0208177 -0.0205539 0
0.0131219 -0.0117778 0
-0.01874 -0.0349952 0
-0.0506196 -0.0429682 0
0.0131219 -0.0117778 0
-0.0116134 -0.000133753 0
0.0208177 -0.0205539 0
0.0131219 -0.0117778 0
0.0376535 -0.0125918 0
0.0327289 -0.00504909 0
0.0131219 -0.0117778 0
-0.0116134 -0.000133753 0
0.0327289 -0.00504909 0
0.044955 0.00757788 0
0.0376535 -0.0125918 0
0.0327289 -0.00504909 0
0.178459 -0.0102025 0
0.183915 -0.0086233 0
0.0327289 -0.00504909 0
0.044955 0.00757788 0
0.183915 -0.0086233 0
0.186872 -0.00659588 0
-0.0600993 -0.0754257 0
-0.0691914 -0.0131174 0
-0.0506196 -0.0429682 0
-0.064018 -0.0184114 0
-0.0691914 -0.0131174 0
-0.0578022 0.0459845 0
-0.064018 -0.0184114 0
-0.0487074 0.0199709 0
-0.0506196 -0.0429682 0
-0.064018 -0.0184114 0
-0.0116134 -0.000133753 0
-0.0308686 -0.0226281 0
-0.064018 -0.0184114 0
-0.0487074 0.0199709 0
-0.0308686 -0.0226281 0
-0.0265146 0.00156773 0
-0.0578022 0.0459845 0
-0.0431076 0.0405646 0
-0.0487074 0.0199709 0
-0.0351455 0.0335432 0
-0.0431076 0.0405646 0
-0.0435555 0.0360942 0
-0.0351455 0.0335432 0
-0.0279095 0.0347269 0
-0.0487074 0.0199709 0
-0.0351455 0.0335432 0
-0.0265146 0.00156773 0
-0.0226049 0.0319778 0
-0.0351455 0.0335432 0
-0.0279095 0.0347269 0
-0.0226049 0.0319778 0
-0.00888286 0.0119122 0
-0.0435555 0.0360942 0
-0.0387126 0.0222084 0
-0.0279095 0.0347269 0
-0.00183059 -0.0124375 0
-0.0387126 0.0222084 0
-0.00776884 0.00618834 0
-0.00183059 -0.0124375 0
0.00926904 -0.00860034 0
-0.0279095 0.0347269 0
-0.00183059 -0.0124375 0
-0.00888286 0.0119122 0
-0.0148948 -0.0122887 0
-0.00183059 -0.0124375 0
0.00926904 -0.00860034 0
-0.0148948 -0.0122887 0
-0.0289554 -0.00503297 0
0 0 0
0 0 0
-0.00645524 0.00719358 0
-0.0410429 0.033142 0
0 0 0
0 0 0
-0.0410429 0.033142 0
-0.0413554 -0.0315914 0
-0.00645524 0.00719358 0
-0.0410429 0.033142 0
-0.017162 0.0288171 0
0.00807149 0.0227367 0
-0.0410429 0.033142 0
-0.0413554 -0.0315914 0
0.00807149 0.0227367 0
0.00985787 -0.0223743 0
-0.017162 0.0288171 0
0.00807149 0.0227367 0
-0.0139559 0.0375626 0
0.00314187 -0.0340133 0
0.00807149 0.0227367 0
0.00985787 -0.0223743 0
0.00314187 -0.0340133 0
-0.0101668 0.0466332 0
-0.0139559 0.0375626 0
0.00314187 -0.0340133 0
-0.00776884 0.00618834 0
-0.00463986 -0.0244056 0
0.00314187 -0.0340133 0
-0.0101668 0.0466332 0
-0.00463986 -0.0244056 0
-0.0217205 0.0714255 0
-0.00776884 0.00618834 0
-0.00463986 -0.0244056 0
0.00926904 -0.00860034 0
-0.0139651 0.0136297 0
-0.00463986 -0.0244056 0
-0.0217205 0.0714255 0
-0.0139651 0.0136297 0
-0.0158351 0.0551995 0
0.00926904 -0.00860034 0
-0.0139651 0.0136297 0
-0.0289554 -0.00503297 0
-0.00840359 0.0130806 0
-0.0139651 0.0136297 0
-0.0158351 0.0551995 0
-0.00840359 0.0130806 0
0.0151985 0.0305659 0
0 0 0
0 0 0
-0.0413554 -0.0315914 0
-0.0253083 0.0117687 0
0 0 0
0 0 0
-0.0253083 0.0117687 0
-0.0300881 -0.00514845 0
-0.0413554 -0.0315914 0
-0.0253083 0.0117687 0
0.00985787 -0.0223743 0
-0.0353047 0.0354583 0
-0.0253083 0.0117687 0
-0.0300881 -0.00514845 0
-0.0353047 0.0354583 0
-0.0478355 -0.00693392 0
0.00985787 -0.0223743 0
-0.0353047 0.0354583 0
-0.0101668 0.0466332 0
-0.028937 0.0412858 0
-0.0353047 0.0354583 0
-0.0478355 -0.00693392 0
-0.028937 0.0412858 0
-0.026139 -0.000860222 0
-0.0101668 0.0466332 0
-0.028937 0.0412858 0
-0.0217205 0.0714255 0
-0.00245192 0.0159726 0
-0.028937 0.0412858 0
-0.026139 -0.000860222 0
-0.00245192 0.0159726 0
0.0145852 0.00105674 0
-0.0217205 0.0714255 0
-0.00245192 0.0159726 0
-0.0158351 0.0551995 0
-0.0155748 0.00953445 0
-0.00245192 0.0159726 0
0.0145852 0.00105674 0
-0.0155748 0.00953445 0
-0.0185067 -0.00882693 0
-0.0158351 0.0551995 0
-0.0155748 0.00953445 0
0.0151985 0.0305659 0
0.0295651 0.0167222 0
-0.0155748 0.00953445 0
-0.0185067 -0.00882693 0
0.0295651 0.0167222 0
0.0203889 -0.00208704 0
0 0 0
0 0 0
-0.0300881 -0.00514845 0
-0.022555 -0.00441197 0
0 0 0
0 0 0
-0.022555 -0.00441197 0
-0.00683538 -0.0135217 0
-0.0300881 -0.00514845 0
-0.022555 -0.00441197 0
-0.0478355 -0.00693392 0
-0.0439379 -0.0168491 0
-0.022555 -0.00441197 0
-0.00683538 -0.0135217 0
-0.0439379 -0.0168491 0
-0.031264 -0.0334444 0
-0.0478355 -0.00693392 0
-0.0439379 -0.0168491 0
-0.026139 -0.000860222 0
-0.0310838 -0.0221263 0
-0.0439379 -0.0168491 0
-0.031264 -0.0334444 0
-0.0310838 -0.0221263 0
-0.0297168 -0.044471 0
-0.026139 -0.000860222 0
-0.0310838 -0.0221263 0
0.0145852 0.00105674 0
0.0054666 -0.00802288 0
-0.0310838 -0.0221263 0
-0.0297168 -0.044471 0
0.0054666 -0.00802288 0
-0.0117108 -0.0400837 0
0.0145852 0.00105674 0
0.0054666 -0.00802288 0
-0.0185067 -0.00882693 0
-0.00285284 -0.00568351 0
0.0054666 -0.00802288 0
-0.0117108 -0.0400837 0
-0.00285284 -0.00568351 0
0.00112492 -0.0268516 0
-0.0185067 -0.00882693 0
-0.00285284 -0.00568351 0
0.0203889 -0.00208704 0
0.0128652 -0.0225994 0
-0.00285284 -0.00568351 0
0.00112492 -0.0268516 0
0.0128652 -0.0225994 0
0.00556568 -0.00613586 0
0 0 0
0 0 0
-0.00683538 -0.0135217 0
0.00239857 0.00264256 0
0 0 0
0 0 0
0.00239857 0.00264256 0
0 0 0
-0.00683538 -0.0135217 0
0.00239857 0.00264256 0
-0.031264 -0.0334444 0
-0.012786 -0.00974708 0
0.00239857 0.00264256 0
0 0 0
-0.012786 -0.00974708 0
0 0 0
-0.031264 -0.0334444 0
-0.012786 -0.00974708 0
-0.0297168 -0.044471 0
-0.0128405 -0.0401137 0
-0.012786 -0.00974708 0
0 0 0
-0.0128405 -0.0401137 0
0 0 0
-0.0297168 -0.044471 0
-0.0128405 -0.0401137 0
-0.0117108 -0.0400837 0
-0.00968499 -0.0665952 0
-0.0128405 -0.0401137 0
0 0 0
-0.00968499 -0.0665952 0
0 0 0
-0.0117108 -0.0400837 0
-0.00968499 -0.0665952 0
0.00112492 -0.0268516 0
-0.00144292 -0.0795117 0
-0.00968499 -0.0665952 0
0 0 0
-0.00144292 -0.0795117 0
0 0 0
0.00112492 -0.0268516 0
-0.00144292 -0.0795117 0
0.00556568 -0.00613586 0
-0.00469554 -0.0865697 0
-0.00144292 -0.0795117 0
0 0 0
-0.00469554 -0.0865697 0
0 0 0
0.178655 0.0102418 0
0.179673 0.00921879 0
0.184115 0.00864764 0
0.172912 0.00737455 0
0.179673 0.00921879 0
0.130384 0.00405689 0
0.172912 0.00737455 0
0.128752 0.00307397 0
0.184115 0.00864764 0
0.172912 0.00737455 0
0.187072 0.00662217 0
0.168108 0.00516248 0
0.172912 0.00737455 0
0.128752 0.00307397 0
0.168108 0.00516248 0
0.127348 0.00236715 0
0.172644 0.00706828 0
0.0973812 0.00602275 0
0.16753 0.00688457 0
0.100676 0.00583361 0
0.0973812 0.00602275 0
0.234044 1.65633e-05 0
0.100676 0.00583361 0
0.220676 1.54853e-05 0
0.16753 0.00688457 0
0.100676 0.00583361 0
0.162599 0.00674419 0
0.103455 0.00534792 0
0.100676 0.00583361 0
0.220676 1.54853e-05 0
0.103455 0.00534792 0
0.208484 1.39269e-05 0
0.162599 0.00674419 0
0.103455 0.00534792 0
0.157716 0.00630719 0
0.106009 0.00507019 0
0.103455 0.00534792 0
0.208484 1.39269e-05 0
0.106009 0.00507019 0
0.197258 1.24462e-05 0
0.157716 0.00630719 0
0.106009 0.00507019 0
0.153373 0.00568456 0
0.108298 0.00458516 0
0.106009 0.00507019 0
0.197258 1.24462e-05 0
0.108298 0.00458516 0
0.186971 1.08402e-05 0
0.153373 0.00568456 0
0.108298 0.00458516 0
0.1496 0.00516932 0
0.110302 0.0042968 0
0.108298 0.00458516 0
0.186971 1.08402e-05 0
0.110302 0.0042968 0
0.177654 9.34997e-06 0
0.1496 0.00516932 0
0.110302 0.0042968 0
0.146246 0.00494493 0
0.111983 0.00387656 0
0.110302 0.0042968 0
0.177654 9.34997e-06 0
0.111983 0.00387656 0
0.169306 7.66077e-06 0
0.146246 0.00494493 0
0.111983 0.00387656 0
0.143227 0.00476118 0
0.113273 0.00380598 0
0.111983 0.00387656 0
0.169306 7.66077e-06 0
0.113273 0.00380598 0
0.161826 7.26334e-06 0
0.143227 0.00476118 0
0.113273 0.00380598 0
0.140432 0.00477267 0
0.114148 0.00348616 0
0.113273 0.00380598 0
0.161826 7.26334e-06 0
0.114148 0.00348616 0
0.15505 6.22274e-06 0
0.140432 0.00477267 0
0.114148 0.00348616 0
0.137737 0.00478304 0
0.114578 0.00354379 0
0.114148 0.00348616 0
0.15505 6.22274e-06 0
0.114578 0.00354379 0
0.148936 5.79547e-06 0
0.137737 0.00478304 0
0.114578 0.00354379 0
0.135073 0.00500357 0
0.114593 0.0032229 0
0.114578 0.00354379 0
0.148936 5.79547e-06 0
0.114593 0.0032229 0
0.143486 4.06991e-06 0
0.135073 0.00500357 0
0.114593 0.0032229 0
0.132552 0.00461656 0
0.114347 0.00332299 0
0.114593 0.0032229 0
0.143486 4.06991e-06 0
0.114347 0.00332299 0
0.138538 5.94624e-06 0
0.132552 0.00461656 0
0.114347 0.00332299 0