# vtk DataFile Version 3.0
#This file was generated by the deal.II library on 2026/3/26 at 11:13:47
ASCII
DATASET UNSTRUCTURED_GRID

POINTS 3648 double
0 0 0
0.214286 0 0
0 0.25 0
0.214286 0.25 0
0 0.25 0
0.214286 0.25 0
0 0.5 0
0.214286 0.5 0
0.214286 0 0
0.428571 0 0
0.214286 0.25 0
0.428571 0.25 0
0.214286 0.25 0
0.428571 0.25 0
0.214286 0.5 0
0.428571 0.5 0
0.428571 0 0
0.642857 0 0
0.428571 0.25 0
0.642857 0.25 0
0.428571 0.25 0
0.642857 0.25 0
0.428571 0.5 0
0.642857 0.5 0
0.428571 0.5 0
0.642857 0.5 0
0.428571 0.75 0
0.642857 0.75 0
0.642857 0 0
0.857143 0 0
0.642857 0.25 0
0.857143 0.25 0
0.642857 0.25 0
0.857143 0.25 0
0.642857 0.5 0
0.857143 0.5 0
0.642857 0.5 0
0.857143 0.5 0
0.642857 0.75 0
0.857143 0.75 0
0.857143 0 0
1.07143 0 0
0.857143 0.25 0
1.07143 0.25 0
0.857143 0.25 0
1.07143 0.25 0
0.857143 0.5 0
1.07143 0.5 0
0.857143 0.5 0
1.07143 0.5 0
0.857143 0.75 0
1.07143 0.75 0
1.07143 0 0
1.28571 0 0
1.07143 0.25 0
1.28571 0.25 0
1.07143 0.25 0
1.28571 0.25 0
1.07143 0.5 0
1.28571 0.5 0
1.07143 0.5 0
1.28571 0.5 0
1.07143 0.75 0
1.28571 0.75 0
1.28571 0 0
1.5 0 0
1.28571 0.25 0
1.5 0.25 0
1.28571 0.25 0
1.5 0.25 0
1.28571 0.5 0
1.5 0.5 0
1.5 0 0
1.71429 0 0
1.5 0.25 0
1.71429 0.25 0
1.5 0.25 0
1.71429 0.25 0
1.5 0.5 0
1.71429 0.5 0
1.71429 0 0
1.92857 0 0
1.71429 0.25 0
1.92857 0.25 0
1.71429 0.25 0
1.92857 0.25 0
1.71429 0.5 0
1.92857 0.5 0
1.92857 0 0
2.14286 0 0
1.92857 0.25 0
2.14286 0.25 0
1.92857 0.25 0
2.14286 0.25 0
1.92857 0.5 0
2.14286 0.5 0
0 3 0
0 2.75 0
0.214286 3 0
0.214286 2.75 0
0.214286 3 0
0.214286 2.75 0
0.428571 3 0
0.428571 2.75 0
0.428571 3 0
0.428571 2.75 0
0.642857 3 0
0.642857 2.75 0
0.642857 3 0
0.642857 2.75 0
0.857143 3 0
0.857143 2.75 0
0.857143 3 0
0.857143 2.75 0
1.07143 3 0
1.07143 2.75 0
1.07143 3 0
1.07143 2.75 0
1.28571 3 0
1.28571 2.75 0
1.28571 3 0
1.28571 2.75 0
1.5 3 0
1.5 2.75 0
1.5 3 0
1.5 2.75 0
1.71429 3 0
1.71429 2.75 0
1.71429 3 0
1.71429 2.75 0
1.92857 3 0
1.92857 2.75 0
1.92857 3 0
1.92857 2.75 0
2.14286 3 0
2.14286 2.75 0
0 2.75 0
0 2.5 0
0.214286 2.75 0
0.214286 2.5 0
0.214286 2.75 0
0.214286 2.5 0
0.428571 2.75 0
0.428571 2.5 0
0.428571 2.75 0
0.428571 2.5 0
0.642857 2.75 0
0.642857 2.5 0
0.642857 2.75 0
0.642857 2.5 0
0.857143 2.75 0
0.857143 2.5 0
0.857143 2.75 0
0.857143 2.5 0
1.07143 2.75 0
1.07143 2.5 0
1.07143 2.75 0
1.07143 2.5 0
1.28571 2.75 0
1.28571 2.5 0
1.28571 2.75 0
1.28571 2.5 0
1.5 2.75 0
1.5 2.5 0
1.5 2.75 0
1.5 2.5 0
1.71429 2.75 0
1.71429 2.5 0
1.71429 2.75 0
1.71429 2.5 0
1.92857 2.75 0
1.92857 2.5 0
1.92857 2.75 0
1.92857 2.5 0
2.14286 2.75 0
2.14286 2.5 0
0.428571 2.5 0
0.428571 2.25 0
0.642857 2.5 0
0.642857 2.25 0
0.642857 2.5 0
0.642857 2.25 0
0.857143 2.5 0
0.857143 2.25 0
0.857143 2.5 0
0.857143 2.25 0
1.07143 2.5 0
1.07143 2.25 0
1.07143 2.5 0
1.07143 2.25 0
1.28571 2.5 0
1.28571 2.25 0
0.214286 0.75 0
0.321429 0.75 0
0.214286 0.875 0
0.321429 0.875 0
0.321429 0.75 0
0.428571 0.75 0
0.321429 0.875 0
0.428571 0.875 0
0.214286 0.875 0
0.321429 0.875 0
0.214286 1 0
0.321429 1 0
0.321429 0.875 0
0.428571 0.875 0
0.321429 1 0
0.428571 1 0
0.428571 0.75 0
0.535714 0.75 0
0.428571 0.875 0
0.535714 0.875 0
0.535714 0.75 0
0.642857 0.75 0
0.535714 0.875 0
0.642857 0.875 0
0.428571 0.875 0
0.535714 0.875 0
0.428571 1 0
0.535714 1 0
0.535714 0.875 0
0.642857 0.875 0
0.535714 1 0
0.642857 1 0
0.642857 0.75 0
0.75 0.75 0
0.642857 0.875 0
0.75 0.875 0
0.75 0.75 0
0.857143 0.75 0
0.75 0.875 0
0.857143 0.875 0
0.642857 0.875 0
0.75 0.875 0
0.642857 1 0
0.75 1 0
0.75 0.875 0
0.857143 0.875 0
0.75 1 0
0.857143 1 0
0.857143 0.75 0
0.964286 0.75 0
0.857143 0.875 0
0.964286 0.875 0
0.964286 0.75 0
1.07143 0.75 0
0.964286 0.875 0
1.07143 0.875 0
0.857143 0.875 0
0.964286 0.875 0
0.857143 1 0
0.964286 1 0
0.964286 0.875 0
1.07143 0.875 0
0.964286 1 0
1.07143 1 0
1.07143 0.75 0
1.17857 0.75 0
1.07143 0.875 0
1.17857 0.875 0
1.17857 0.75 0
1.28571 0.75 0
1.17857 0.875 0
1.28571 0.875 0
1.07143 0.875 0
1.17857 0.875 0
1.07143 1 0
1.17857 1 0
1.17857 0.875 0
1.28571 0.875 0
1.17857 1 0
1.28571 1 0
0.214286 2 0
0.214286 1.875 0
0.321429 2 0
0.321429 1.875 0
0.214286 1.875 0
0.214286 1.75 0
0.321429 1.875 0
0.321429 1.75 0
0.321429 2 0
0.321429 1.875 0
0.428571 2 0
0.428571 1.875 0
0.321429 1.875 0
0.321429 1.75 0
0.428571 1.875 0
0.428571 1.75 0
0.428571 2 0
0.428571 1.875 0
0.535714 2 0
0.535714 1.875 0
0.428571 1.875 0
0.428571 1.75 0
0.535714 1.875 0
0.535714 1.75 0
0.535714 2 0
0.535714 1.875 0
0.642857 2 0
0.642857 1.875 0
0.535714 1.875 0
0.535714 1.75 0
0.642857 1.875 0
0.642857 1.75 0
0.642857 2 0
0.642857 1.875 0
0.75 2 0
0.75 1.875 0
0.642857 1.875 0
0.642857 1.75 0
0.75 1.875 0
0.75 1.75 0
0.75 2 0
0.75 1.875 0
0.857143 2 0
0.857143 1.875 0
0.75 1.875 0
0.75 1.75 0
0.857143 1.875 0
0.857143 1.75 0
0.857143 2 0
0.857143 1.875 0
0.964286 2 0
0.964286 1.875 0
0.857143 1.875 0
0.857143 1.75 0
0.964286 1.875 0
0.964286 1.75 0
0.964286 2 0
0.964286 1.875 0
1.07143 2 0
1.07143 1.875 0
0.964286 1.875 0
0.964286 1.75 0
1.07143 1.875 0
1.07143 1.75 0
1.07143 2 0
1.07143 1.875 0
1.17857 2 0
1.17857 1.875 0
1.07143 1.875 0
1.07143 1.75 0
1.17857 1.875 0
1.17857 1.75 0
1.17857 2 0
1.17857 1.875 0
1.28571 2 0
1.28571 1.875 0
1.17857 1.875 0
1.17857 1.75 0
1.28571 1.875 0
1.28571 1.75 0
0.214286 1.25 0
0.214286 1.125 0
0.321429 1.25 0
0.321429 1.125 0
0.214286 1.125 0
0.214286 1 0
0.321429 1.125 0
0.321429 1 0
0.321429 1.25 0
0.321429 1.125 0
0.428571 1.25 0
0.428571 1.125 0
0.321429 1.125 0
0.321429 1 0
0.428571 1.125 0
0.428571 1 0
0.428571 1.25 0
0.428571 1.125 0
0.535714 1.25 0
0.535714 1.125 0
0.428571 1.125 0
0.428571 1 0
0.535714 1.125 0
0.535714 1 0
0.535714 1.25 0
0.535714 1.125 0
0.642857 1.25 0
0.642857 1.125 0
0.535714 1.125 0
0.535714 1 0
0.642857 1.125 0
0.642857 1 0
0.642857 1.25 0
0.642857 1.125 0
0.75 1.25 0
0.75 1.125 0
0.642857 1.125 0
0.642857 1 0
0.75 1.125 0
0.75 1 0
0.75 1.25 0
0.75 1.125 0
0.857143 1.25 0
0.857143 1.125 0
0.75 1.125 0
0.75 1 0
0.857143 1.125 0
0.857143 1 0
0.857143 1.25 0
0.857143 1.125 0
0.964286 1.25 0
0.964286 1.125 0
0.857143 1.125 0
0.857143 1 0
0.964286 1.125 0
0.964286 1 0
0.964286 1.25 0
0.964286 1.125 0
1.07143 1.25 0
1.07143 1.125 0
0.964286 1.125 0
0.964286 1 0
1.07143 1.125 0
1.07143 1 0
1.07143 1.25 0
1.07143 1.125 0
1.17857 1.25 0
1.17857 1.125 0
1.07143 1.125 0
1.07143 1 0
1.17857 1.125 0
1.17857 1 0
1.17857 1.25 0
1.17857 1.125 0
1.28571 1.25 0
1.28571 1.125 0
1.17857 1.125 0
1.17857 1 0
1.28571 1.125 0
1.28571 1 0
0.214286 2.25 0
0.214286 2.125 0
0.321429 2.25 0
0.321429 2.125 0
0.214286 2.125 0
0.214286 2 0
0.321429 2.125 0
0.321429 2 0
0.321429 2.25 0
0.321429 2.125 0
0.428571 2.25 0
0.428571 2.125 0
0.321429 2.125 0
0.321429 2 0
0.428571 2.125 0
0.428571 2 0
0.428571 2.25 0
0.428571 2.125 0
0.535714 2.25 0
0.535714 2.125 0
0.428571 2.125 0
0.428571 2 0
0.535714 2.125 0
0.535714 2 0
0.535714 2.25 0
0.535714 2.125 0
0.642857 2.25 0
0.642857 2.125 0
0.535714 2.125 0
0.535714 2 0
0.642857 2.125 0
0.642857 2 0
0.642857 2.25 0
0.642857 2.125 0
0.75 2.25 0
0.75 2.125 0
0.642857 2.125 0
0.642857 2 0
0.75 2.125 0
0.75 2 0
0.75 2.25 0
0.75 2.125 0
0.857143 2.25 0
0.857143 2.125 0
0.75 2.125 0
0.75 2 0
0.857143 2.125 0
0.857143 2 0
0.857143 2.25 0
0.857143 2.125 0
0.964286 2.25 0
0.964286 2.125 0
0.857143 2.125 0
0.857143 2 0
0.964286 2.125 0
0.964286 2 0
0.964286 2.25 0
0.964286 2.125 0
1.07143 2.25 0
1.07143 2.125 0
0.964286 2.125 0
0.964286 2 0
1.07143 2.125 0
1.07143 2 0
1.07143 2.25 0
1.07143 2.125 0
1.17857 2.25 0
1.17857 2.125 0
1.07143 2.125 0
1.07143 2 0
1.17857 2.125 0
1.17857 2 0
1.17857 2.25 0
1.17857 2.125 0
1.28571 2.25 0
1.28571 2.125 0
1.17857 2.125 0
1.17857 2 0
1.28571 2.125 0
1.28571 2 0
0 0.5 0
0.107143 0.5 0
0 0.625 0
0.107143 0.625 0
0.107143 0.5 0
0.214286 0.5 0
0.107143 0.625 0
0.214286 0.625 0
0 0.625 0
0.107143 0.625 0
0 0.75 0
0.107143 0.75 0
0.107143 0.625 0
0.214286 0.625 0
0.107143 0.75 0
0.214286 0.75 0
0.214286 0.5 0
0.321429 0.5 0
0.214286 0.625 0
0.321429 0.625 0
0.321429 0.5 0
0.428571 0.5 0
0.321429 0.625 0
0.428571 0.625 0
0.214286 0.625 0
0.321429 0.625 0
0.214286 0.75 0
0.321429 0.75 0
0.321429 0.625 0
0.428571 0.625 0
0.321429 0.75 0
0.428571 0.75 0
1.28571 0.5 0
1.39286 0.5 0
1.28571 0.625 0
1.39286 0.625 0
1.39286 0.5 0
1.5 0.5 0
1.39286 0.625 0
1.5 0.625 0
1.28571 0.625 0
1.39286 0.625 0
1.28571 0.75 0
1.39286 0.75 0
1.39286 0.625 0
1.5 0.625 0
1.39286 0.75 0
1.5 0.75 0
1.28571 0.75 0
1.39286 0.75 0
1.28571 0.875 0
1.39286 0.875 0
1.39286 0.75 0
1.5 0.75 0
1.39286 0.875 0
1.5 0.875 0
1.28571 0.875 0
1.39286 0.875 0
1.28571 1 0
1.39286 1 0
1.39286 0.875 0
1.5 0.875 0
1.39286 1 0
1.5 1 0
1.5 0.5 0
1.60714 0.5 0
1.5 0.625 0
1.60714 0.625 0
1.60714 0.5 0
1.71429 0.5 0
1.60714 0.625 0
1.71429 0.625 0
1.5 0.625 0
1.60714 0.625 0
1.5 0.75 0
1.60714 0.75 0
1.60714 0.625 0
1.71429 0.625 0
1.60714 0.75 0
1.71429 0.75 0
1.71429 0.5 0
1.82143 0.5 0
1.71429 0.625 0
1.82143 0.625 0
1.82143 0.5 0
1.92857 0.5 0
1.82143 0.625 0
1.92857 0.625 0
1.71429 0.625 0
1.82143 0.625 0
1.71429 0.75 0
1.82143 0.75 0
1.82143 0.625 0
1.92857 0.625 0
1.82143 0.75 0
1.92857 0.75 0
1.92857 0.5 0
2.03571 0.5 0
1.92857 0.625 0
2.03571 0.625 0
2.03571 0.5 0
2.14286 0.5 0
2.03571 0.625 0
2.14286 0.625 0
1.92857 0.625 0
2.03571 0.625 0
1.92857 0.75 0
2.03571 0.75 0
2.03571 0.625 0
2.14286 0.625 0
2.03571 0.75 0
2.14286 0.75 0
2.14286 0 0
2.25 0 0
2.14286 0.125 0
2.25 0.125 0
2.25 0 0
2.35714 0 0
2.25 0.125 0
2.35714 0.125 0
2.14286 0.125 0
2.25 0.125 0
2.14286 0.25 0
2.25 0.25 0
2.25 0.125 0
2.35714 0.125 0
2.25 0.25 0
2.35714 0.25 0
2.14286 0.25 0
2.25 0.25 0
2.14286 0.375 0
2.25 0.375 0
2.25 0.25 0
2.35714 0.25 0
2.25 0.375 0
2.35714 0.375 0
2.14286 0.375 0
2.25 0.375 0
2.14286 0.5 0
2.25 0.5 0
2.25 0.375 0
2.35714 0.375 0
2.25 0.5 0
2.35714 0.5 0
2.14286 0.5 0
2.25 0.5 0
2.14286 0.625 0
2.25 0.625 0
2.25 0.5 0
2.35714 0.5 0
2.25 0.625 0
2.35714 0.625 0
2.14286 0.625 0
2.25 0.625 0
2.14286 0.75 0
2.25 0.75 0
2.25 0.625 0
2.35714 0.625 0
2.25 0.75 0
2.35714 0.75 0
2.35714 0 0
2.46429 0 0
[...]
POINT_DATA 3648
VECTORS velocity double
0 0 0
0 0 0
0 0 0
-0.00919643 0.0103756 0
0 0 0
-0.00919643 0.0103756 0
0 0 0
-0.0043868 0.0270699 0
0 0 0
0 0 0
-0.00919643 0.0103756 0
-0.0343102 0.018103 0
-0.00919643 0.0103756 0
-0.0343102 0.018103 0
-0.0043868 0.0270699 0
-0.00627302 0.0336481 0
0 0 0
0 0 0
-0.0343102 0.018103 0
-0.0596734 0.0112832 0
-0.0343102 0.018103 0
-0.0596734 0.0112832 0
-0.00627302 0.0336481 0
-0.00799817 0.0283997 0
-0.00627302 0.0336481 0
-0.00799817 0.0283997 0
0.0229371 0.021825 0
0.0459634 0.0150814 0
0 0 0
0 0 0
-0.0596734 0.0112832 0
-0.0676978 -0.0021391 0
-0.0596734 0.0112832 0
-0.0676978 -0.0021391 0
-0.00799817 0.0283997 0
0.00054495 -0.0200045 0
-0.00799817 0.0283997 0
0.00054495 -0.0200045 0
0.0459634 0.0150814 0
0.0425186 -0.0129984 0
0 0 0
0 0 0
-0.0676978 -0.0021391 0
-0.0486051 -0.0207388 0
-0.0676978 -0.0021391 0
-0.0486051 -0.0207388 0
0.00054495 -0.0200045 0
-0.00110892 -0.0216672 0
0.00054495 -0.0200045 0
-0.00110892 -0.0216672 0
0.0425186 -0.0129984 0
0.0219991 -0.00305247 0
0 0 0
0 0 0
-0.0486051 -0.0207388 0
0.0118375 -0.0520698 0
-0.0486051 -0.0207388 0
0.0118375 -0.0520698 0
-0.00110892 -0.0216672 0
-0.0442568 -0.070052 0
-0.00110892 -0.0216672 0
-0.0442568 -0.070052 0
0.0219991 -0.00305247 0
0.0184568 -0.0349989 0
0 0 0
0 0 0
0.0118375 -0.0520698 0
0.0486012 0.00916545 0
0.0118375 -0.0520698 0
0.0486012 0.00916545 0
-0.0442568 -0.070052 0
-0.0190788 -0.0428601 0
0 0 0
0 0 0
0.0486012 0.00916545 0
0.0460762 -0.00772951 0
0.0486012 0.00916545 0
0.0460762 -0.00772951 0
-0.0190788 -0.0428601 0
-0.0189713 0.0417636 0
0 0 0
0 0 0
0.0460762 -0.00772951 0
0.0385497 0.0169035 0
0.0460762 -0.00772951 0
0.0385497 0.0169035 0
-0.0189713 0.0417636 0
-0.0616288 0.0292212 0
0 0 0
0 0 0
0.0385497 0.0169035 0
-0.00525742 0.0316917 0
0.0385497 0.0169035 0
-0.00525742 0.0316917 0
-0.0616288 0.0292212 0
-0.0130403 0.0126242 0
0 0 0
0 0 0
0 0 0
-0.00919626 -0.0103754 0
0 0 0
-0.00919626 -0.0103754 0
0 0 0
-0.0343096 -0.0181028 0
0 0 0
-0.0343096 -0.0181028 0
0 0 0
-0.0596726 -0.011283 0
0 0 0
-0.0596726 -0.011283 0
0 0 0
-0.0676965 0.0021395 0
0 0 0
-0.0676965 0.0021395 0
0 0 0
-0.0486032 0.0207392 0
0 0 0
-0.0486032 0.0207392 0
0 0 0
0.011839 0.0520689 0
0 0 0
0.011839 0.0520689 0
0 0 0
0.0485999 -0.00916783 0
0 0 0
0.0485999 -0.00916783 0
0 0 0
0.0460743 0.00773115 0
0 0 0
0.0460743 0.00773115 0
0 0 0
0.0385493 -0.0169031 0
0 0 0
0.0385493 -0.0169031 0
0 0 0
-0.00525757 -0.0316918 0
0 0 0
0 0 0
-0.00919626 -0.0103754 0
-0.00438669 -0.0270694 0
-0.00919626 -0.0103754 0
-0.00438669 -0.0270694 0
-0.0343096 -0.0181028 0
-0.00627298 -0.0336479 0
-0.0343096 -0.0181028 0
-0.00627298 -0.0336479 0
-0.0596726 -0.011283 0
-0.00799779 -0.0283988 0
-0.0596726 -0.011283 0
-0.00799779 -0.0283988 0
-0.0676965 0.0021395 0
0.000544886 0.0200041 0
-0.0676965 0.0021395 0
0.000544886 0.0200041 0
-0.0486032 0.0207392 0
-0.00110992 0.021668 0
-0.0486032 0.0207392 0
-0.00110992 0.021668 0
0.011839 0.0520689 0
-0.0442568 0.0700513 0
0.011839 0.0520689 0
-0.0442568 0.0700513 0
0.0485999 -0.00916783 0
-0.0190769 0.0428566 0
0.0485999 -0.00916783 0
-0.0190769 0.0428566 0
0.0460743 0.00773115 0
-0.0189695 -0.0417621 0
0.0460743 0.00773115 0
-0.0189695 -0.0417621 0
0.0385493 -0.0169031 0
-0.0616289 -0.0292211 0
0.0385493 -0.0169031 0
-0.0616289 -0.0292211 0
-0.00525757 -0.0316918 0
-0.0130403 -0.0126238 0
-0.00627298 -0.0336479 0
0.022937 -0.0218248 0
-0.00799779 -0.0283988 0
0.0459626 -0.0150809 0
-0.00799779 -0.0283988 0
0.0459626 -0.0150809 0
0.000544886 0.0200041 0
0.0425177 0.0129978 0
0.000544886 0.0200041 0
0.0425177 0.0129978 0
-0.00110992 0.021668 0
0.0219984 0.00305271 0
-0.00110992 0.021668 0
0.0219984 0.00305271 0
-0.0442568 0.0700513 0
0.0184547 0.0349982 0
0.00664939 0.0232826 0
0.0154838 0.0186543 0
0.00615455 0.0136697 0
0.012304 0.0108128 0
0.0154838 0.0186543 0
0.0229371 0.021825 0
0.012304 0.0108128 0
0.0208731 0.0112197 0
0.00615455 0.0136697 0
0.012304 0.0108128 0
0.0506845 -0.00336598 0
0.0728157 -0.00444649 0
0.012304 0.0108128 0
0.0208731 0.0112197 0
0.0728157 -0.00444649 0
0.0916629 -0.0053119 0
0.0229371 0.021825 0
0.0321819 0.0181554 0
0.0208731 0.0112197 0
0.0299504 0.00782877 0
0.0321819 0.0181554 0
0.0459634 0.0150814 0
0.0299504 0.00782877 0
0.0352254 0.00369684 0
0.0208731 0.0112197 0
0.0299504 0.00782877 0
0.0916629 -0.0053119 0
0.108126 -0.00566782 0
0.0299504 0.00782877 0
0.0352254 0.00369684 0
0.108126 -0.00566782 0
0.122826 -0.00665704 0
0.0459634 0.0150814 0
0.053188 0.00196812 0
0.0352254 0.00369684 0
0.0386123 0.00169387 0
0.053188 0.00196812 0
0.0425186 -0.0129984 0
0.0386123 0.00169387 0
0.0406088 -0.00177963 0
0.0352254 0.00369684 0
0.0386123 0.00169387 0
0.122826 -0.00665704 0
0.135842 -0.00780876 0
0.0386123 0.00169387 0
0.0406088 -0.00177963 0
0.135842 -0.00780876 0
0.147352 -0.00882396 0
0.0425186 -0.0129984 0
0.0275299 -0.00886436 0
0.0406088 -0.00177963 0
0.0414736 -0.00285472 0
0.0275299 -0.00886436 0
0.0219991 -0.00305247 0
0.0414736 -0.00285472 0
0.0435856 -0.00436694 0
0.0406088 -0.00177963 0
0.0414736 -0.00285472 0
0.147352 -0.00882396 0
0.157636 -0.0098862 0
0.0414736 -0.00285472 0
0.0435856 -0.00436694 0
0.157636 -0.0098862 0
0.166499 -0.0111984 0
0.0219991 -0.00305247 0
0.0207149 -0.0188648 0
0.0435856 -0.00436694 0
0.0409874 -0.0122909 0
0.0207149 -0.0188648 0
0.0184568 -0.0349989 0
0.0409874 -0.0122909 0
0.0249288 -0.0197759 0
0.0435856 -0.00436694 0
0.0409874 -0.0122909 0
0.166499 -0.0111984 0
0.173732 -0.0118538 0
0.0409874 -0.0122909 0
0.0249288 -0.0197759 0
0.173732 -0.0118538 0
0.180109 -0.00926025 0
0.0506847 0.00336603 0
0.242551 0.014086 0
0.072816 0.00444658 0
0.237472 0.0132163 0
0.242551 0.014086 0
0.188646 0.00599292 0
0.237472 0.0132163 0
0.180177 0.00560178 0
0.072816 0.00444658 0
0.237472 0.0132163 0
0.0916632 0.00531201 0
0.232602 0.0122294 0
0.237472 0.0132163 0
0.180177 0.00560178 0
0.232602 0.0122294 0
0.172392 0.00525203 0
0.0916632 0.00531201 0
0.232602 0.0122294 0
0.108127 0.00566795 0
0.227883 0.011578 0
0.232602 0.0122294 0
0.172392 0.00525203 0
0.227883 0.011578 0
0.165263 0.00497962 0
0.108127 0.00566795 0
0.227883 0.011578 0
0.122826 0.00665714 0
0.223139 0.0113098 0
0.227883 0.011578 0
0.165263 0.00497962 0
0.223139 0.0113098 0
0.15868 0.00500498 0
0.122826 0.00665714 0
0.223139 0.0113098 0
0.135842 0.00780883 0
0.218246 0.011334 0
0.223139 0.0113098 0
0.15868 0.00500498 0
0.218246 0.011334 0
0.15252 0.00502099 0
0.135842 0.00780883 0
0.218246 0.011334 0
0.147353 0.008824 0
0.213082 0.0113242 0
0.218246 0.011334 0
0.15252 0.00502099 0
0.213082 0.0113242 0
0.146664 0.00511014 0
0.147353 0.008824 0
0.213082 0.0113242 0
0.157637 0.00988623 0
0.207478 0.0115402 0
0.213082 0.0113242 0
0.146664 0.00511014 0
0.207478 0.0115402 0
0.141088 0.00507235 0
0.157637 0.00988623 0
0.207478 0.0115402 0
0.1665 0.0111984 0
0.201379 0.0115801 0
0.207478 0.0115402 0
0.141088 0.00507235 0
0.201379 0.0115801 0
0.135826 0.00510203 0
0.1665 0.0111984 0
0.201379 0.0115801 0
0.173733 0.0118537 0
0.194812 0.0110758 0
0.201379 0.0115801 0
0.135826 0.00510203 0
0.194812 0.0110758 0
0.131078 0.00447317 0
0.173733 0.0118537 0
0.194812 0.0110758 0
0.18011 0.00926024 0
0.188168 0.0087639 0
0.194812 0.0110758 0
0.131078 0.00447317 0
0.188168 0.0087639 0
0.127293 0.00330093 0
0.188646 -0.00599281 0
0.242551 -0.0140858 0
0.180177 -0.00560167 0
0.237471 -0.0132162 0
0.242551 -0.0140858 0
0.0506845 -0.00336598 0
0.237471 -0.0132162 0
0.0728157 -0.00444649 0
0.180177 -0.00560167 0
0.237471 -0.0132162 0
0.172392 -0.00525193 0
0.232601 -0.0122292 0
0.237471 -0.0132162 0
0.0728157 -0.00444649 0
0.232601 -0.0122292 0
0.0916629 -0.0053119 0
0.172392 -0.00525193 0
0.232601 -0.0122292 0
0.165263 -0.00497954 0
0.227882 -0.0115778 0
0.232601 -0.0122292 0
0.0916629 -0.0053119 0
0.227882 -0.0115778 0
0.108126 -0.00566782 0
0.165263 -0.00497954 0
0.227882 -0.0115778 0
0.15868 -0.00500492 0
0.223139 -0.0113097 0
0.227882 -0.0115778 0
0.108126 -0.00566782 0
0.223139 -0.0113097 0
0.122826 -0.00665704 0
0.15868 -0.00500492 0
0.223139 -0.0113097 0
0.152521 -0.00502095 0
0.218246 -0.0113339 0
0.223139 -0.0113097 0
0.122826 -0.00665704 0
0.218246 -0.0113339 0
0.135842 -0.00780876 0
0.152521 -0.00502095 0
0.218246 -0.0113339 0
0.146664 -0.00511012 0
0.213082 -0.0113242 0
0.218246 -0.0113339 0
0.135842 -0.00780876 0
0.213082 -0.0113242 0
0.147352 -0.00882396 0
0.146664 -0.00511012 0
0.213082 -0.0113242 0
0.141088 -0.00507236 0
0.207478 -0.0115402 0
0.213082 -0.0113242 0
0.147352 -0.00882396 0
0.207478 -0.0115402 0
0.157636 -0.0098862 0
0.141088 -0.00507236 0
0.207478 -0.0115402 0
0.135826 -0.00510206 0
0.201379 -0.0115802 0
0.207478 -0.0115402 0
0.157636 -0.0098862 0
0.201379 -0.0115802 0
0.166499 -0.0111984 0
0.135826 -0.00510206 0
0.201379 -0.0115802 0
0.131079 -0.00447319 0
0.194812 -0.0110758 0
0.201379 -0.0115802 0
0.166499 -0.0111984 0
0.194812 -0.0110758 0
0.173732 -0.0118538 0
0.131079 -0.00447319 0
0.194812 -0.0110758 0
0.127293 -0.00330092 0
0.188169 -0.0087639 0
0.194812 -0.0110758 0
0.173732 -0.0118538 0
0.188169 -0.0087639 0
0.180109 -0.00926025 0
0.00664936 -0.023282 0
0.00615425 -0.0136693 0
0.0154837 -0.0186539 0
0.0123033 -0.0108127 0
0.00615425 -0.0136693 0
0.0506847 0.00336603 0
0.0123033 -0.0108127 0
0.072816 0.00444658 0
0.0154837 -0.0186539 0
0.0123033 -0.0108127 0
0.022937 -0.0218248 0
0.0208723 -0.0112196 0
0.0123033 -0.0108127 0
0.072816 0.00444658 0
0.0208723 -0.0112196 0
0.0916632 0.00531201 0
0.022937 -0.0218248 0
0.0208723 -0.0112196 0
0.0321816 -0.018155 0
0.0299494 -0.00782865 0
0.0208723 -0.0112196 0
0.0916632 0.00531201 0
0.0299494 -0.00782865 0
0.108127 0.00566795 0
0.0321816 -0.018155 0
0.0299494 -0.00782865 0
0.0459626 -0.0150809 0
0.0352245 -0.00369675 0
0.0299494 -0.00782865 0
0.108127 0.00566795 0
0.0352245 -0.00369675 0
0.122826 0.00665714 0
0.0459626 -0.0150809 0
0.0352245 -0.00369675 0
0.0531868 -0.00196813 0
0.0386113 -0.00169386 0
0.0352245 -0.00369675 0
0.122826 0.00665714 0
0.0386113 -0.00169386 0
0.135842 0.00780883 0
0.0531868 -0.00196813 0
0.0386113 -0.00169386 0
0.0425177 0.0129978 0
0.040608 0.00177951 0
0.0386113 -0.00169386 0
0.135842 0.00780883 0
0.040608 0.00177951 0
0.147353 0.008824 0
0.0425177 0.0129978 0
0.040608 0.00177951 0
0.0275294 0.00886408 0
0.041473 0.00285464 0
0.040608 0.00177951 0
0.147353 0.008824 0
0.041473 0.00285464 0
0.157637 0.00988623 0
0.0275294 0.00886408 0
0.041473 0.00285464 0
0.0219984 0.00305271 0
0.0435851 0.0043669 0
0.041473 0.00285464 0
0.157637 0.00988623 0
0.0435851 0.0043669 0
0.1665 0.0111984 0
0.0219984 0.00305271 0
0.0435851 0.0043669 0
0.0207136 0.0188646 0
0.0409872 0.0122906 0
0.0435851 0.0043669 0
0.1665 0.0111984 0
0.0409872 0.0122906 0
0.173733 0.0118537 0
0.0207136 0.0188646 0
0.0409872 0.0122906 0
0.0184547 0.0349982 0
0.0249293 0.0197752 0
0.0409872 0.0122906 0
0.173733 0.0118537 0
0.0249293 0.0197752 0
0.18011 0.00926024 0
0 0 0
-0.00100444 0.013487 0
0 0 0
-0.000473558 0.0151859 0
-0.00100444 0.013487 0
-0.0043868 0.0270699 0
-0.000473558 0.0151859 0
-0.000595185 0.0293207 0
0 0 0
-0.000473558 0.0151859 0
0 0 0
0.000889864 0.0146642 0
-0.000473558 0.0151859 0
-0.000595185 0.0293207 0
0.000889864 0.0146642 0
0.00664939 0.0232826 0
-0.0043868 0.0270699 0
-0.00721563 0.030717 0
-0.000595185 0.0293207 0
0.00311192 0.0273627 0
-0.00721563 0.030717 0
-0.00627302 0.0336481 0
0.00311192 0.0273627 0
0.00910614 0.0289205 0
-0.000595185 0.0293207 0
0.00311192 0.0273627 0
0.00664939 0.0232826 0
0.0154838 0.0186543 0
0.00311192 0.0273627 0
0.00910614 0.0289205 0
0.0154838 0.0186543 0
0.0229371 0.021825 0
-0.0442568 -0.070052 0
-0.0513299 -0.058833 0
-0.0111202 -0.0453544 0
-0.040673 -0.040678 0
-0.0513299 -0.058833 0
-0.0190788 -0.0428601 0
-0.040673 -0.040678 0
-0.0818069 -0.0497606 0
-0.0111202 -0.0453544 0
-0.040673 -0.040678 0
0.0184568 -0.0349989 0
-0.00568916 0.0119313 0
-0.040673 -0.040678 0
-0.0818069 -0.0497606 0
-0.00568916 0.0119313 0
-0.0470027 -0.00655995 0
0.0184568 -0.0349989 0
-0.00568916 0.0119313 0
0.0249288 -0.0197759 0
0.0313239 0.0175582 0
-0.00568916 0.0119313 0
-0.0470027 -0.00655995 0
0.0313239 0.0175582 0
0.0562982 0.00654918 0
0.0249288 -0.0197759 0
0.0313239 0.0175582 0
0.180109 -0.00926025 0
0.184561 -0.00591052 0
0.0313239 0.0175582 0
0.0562982 0.00654918 0
0.184561 -0.00591052 0
0.18806 -0.00356346 0
-0.0190788 -0.0428601 0
0.00606502 0.00462957 0
-0.0818069 -0.0497606 0
-0.0949469 -0.00126462 0
0.00606502 0.00462957 0
-0.0189713 0.0417636 0
-0.0949469 -0.00126462 0
-0.0656446 0.0425018 0
-0.0818069 -0.0497606 0
-0.0949469 -0.00126462 0
-0.0470027 -0.00655995 0
-0.0522359 -0.0220273 0
-0.0949469 -0.00126462 0
-0.0656446 0.0425018 0
-0.0522359 -0.0220273 0
-0.0398482 0.0142553 0
-0.0189713 0.0417636 0
-0.0537936 0.0321719 0
-0.0656446 0.0425018 0
-0.0347588 0.0362456 0
-0.0537936 0.0321719 0
-0.0616288 0.0292212 0
-0.0347588 0.0362456 0
-0.0233356 0.0206924 0
-0.0656446 0.0425018 0
-0.0347588 0.0362456 0
-0.0398482 0.0142553 0
-0.0324395 0.0204515 0
-0.0347588 0.0362456 0
-0.0233356 0.0206924 0
-0.0324395 0.0204515 0
-0.0179069 0.00620334 0
-0.0616288 0.0292212 0
-0.047226 0.0234208 0
-0.0233356 0.0206924 0
-0.00238758 -0.00959289 0
-0.047226 0.0234208 0
-0.0130403 0.0126242 0
-0.00238758 -0.00959289 0
0.00683553 -0.00562299 0
-0.0233356 0.0206924 0
-0.00238758 -0.00959289 0
-0.0179069 0.00620334 0
-0.0209562 -0.0153029 0
-0.00238758 -0.00959289 0
0.00683553 -0.00562299 0
-0.0209562 -0.0153029 0
-0.0295211 -0.000186125 0
0 0 0
0 0 0
0.00211505 0.00771875 0
-0.0442647 0.0463301 0
0 0 0
0 0 0
-0.0442647 0.0463301 0
-0.0443358 -0.0448226 0
0.00211505 0.00771875 0
-0.0442647 0.0463301 0
-0.00525742 0.0316917 0
0.0189409 0.0486669 0
-0.0442647 0.0463301 0
-0.0443358 -0.0448226 0
0.0189409 0.0486669 0
0.0141466 -0.040741 0
-0.00525742 0.0316917 0
0.0189409 0.0486669 0
-0.0133305 0.0432142 0
0.0166206 -0.0245035 0
0.0189409 0.0486669 0
0.0141466 -0.040741 0
0.0166206 -0.0245035 0
0.0156343 0.0379845 0
-0.0133305 0.0432142 0
0.0166206 -0.0245035 0
-0.0130403 0.0126242 0
-0.00339487 -0.0378423 0
0.0166206 -0.0245035 0
0.0156343 0.0379845 0
-0.00339487 -0.0378423 0
-0.0198062 0.0697768 0
-0.0130403 0.0126242 0
-0.00339487 -0.0378423 0
0.00683553 -0.00562299 0
-0.0273829 0.00863636 0
-0.00339487 -0.0378423 0
-0.0198062 0.0697768 0
-0.0273829 0.00863636 0
-0.0367785 0.0529612 0
0.00683553 -0.00562299 0
-0.0273829 0.00863636 0
-0.0295211 -0.000186125 0
-0.0147136 0.0258049 0
-0.0273829 0.00863636 0
-0.0367785 0.0529612 0
-0.0147136 0.0258049 0
0.00574177 0.0232723 0
0 0 0
0 0 0
-0.0443358 -0.0448226 0
-0.0204915 0.0160176 0
0 0 0
0 0 0
-0.0204915 0.0160176 0
-0.0260252 -0.00854933 0
-0.0443358 -0.0448226 0
-0.0204915 0.0160176 0
0.0141466 -0.040741 0
-0.0308538 0.035874 0
-0.0204915 0.0160176 0
-0.0260252 -0.00854933 0
-0.0308538 0.035874 0
-0.0415578 -0.00785887 0
0.0141466 -0.040741 0
-0.0308538 0.035874 0
0.0156343 0.0379845 0
-0.0140821 0.0445131 0
-0.0308538 0.035874 0
-0.0415578 -0.00785887 0
-0.0140821 0.0445131 0
-0.0166531 -0.00076477 0
0.0156343 0.0379845 0
-0.0140821 0.0445131 0
-0.0198062 0.0697768 0
-0.00443097 0.0291063 0
-0.0140821 0.0445131 0
-0.0166531 -0.00076477 0
-0.00443097 0.0291063 0
0.0200041 -0.0109757 0
-0.0198062 0.0697768 0
-0.00443097 0.0291063 0
-0.0367785 0.0529612 0
-0.0167075 0.0048075 0
-0.00443097 0.0291063 0
0.0200041 -0.0109757 0
-0.0167075 0.0048075 0
-0.00477366 -0.0289285 0
-0.0367785 0.0529612 0
-0.0167075 0.0048075 0
0.00574177 0.0232723 0
0.0164775 -0.0018859 0
-0.0167075 0.0048075 0
-0.00477366 -0.0289285 0
0.0164775 -0.0018859 0
-0.00318768 -0.0133784 0
0 0 0
0 0 0
-0.0260252 -0.00854933 0
-0.0170038 -0.00230454 0
0 0 0
0 0 0
-0.0170038 -0.00230454 0
-0.00234929 -0.0145049 0
-0.0260252 -0.00854933 0
-0.0170038 -0.00230454 0
-0.0415578 -0.00785887 0
-0.0371799 -0.018891 0
-0.0170038 -0.00230454 0
-0.00234929 -0.0145049 0
-0.0371799 -0.018891 0
-0.0229707 -0.0312408 0
-0.0415578 -0.00785887 0
-0.0371799 -0.018891 0
-0.0166531 -0.00076477 0
-0.0233399 -0.0234368 0
-0.0371799 -0.018891 0
-0.0229707 -0.0312408 0
-0.0233399 -0.0234368 0
-0.026687 -0.0399223 0
-0.0166531 -0.00076477 0
-0.0233399 -0.0234368 0
0.0200041 -0.0109757 0
0.0149115 0.000406809 0
-0.0233399 -0.0234368 0
-0.026687 -0.0399223 0
0.0149115 0.000406809 0
-0.0113084 -0.0295909 0
0.0200041 -0.0109757 0
0.0149115 0.000406809 0
-0.00477366 -0.0289285 0
-0.00407757 0.0237393 0
0.0149115 0.000406809 0
-0.0113084 -0.0295909 0
-0.00407757 0.0237393 0
-0.00744637 -0.0185787 0
-0.00477366 -0.0289285 0
-0.00407757 0.0237393 0
-0.00318768 -0.0133784 0
0.00519123 -0.00287856 0
-0.00407757 0.0237393 0
-0.00744637 -0.0185787 0
0.00519123 -0.00287856 0
0.009932 0.00614665 0
0 0 0
0 0 0
-0.00234929 -0.0145049 0
0.00520049 0.00580467 0
0 0 0
0 0 0
0.00520049 0.00580467 0
0 0 0
-0.00234929 -0.0145049 0
0.00520049 0.00580467 0
-0.0229707 -0.0312408 0
-0.0103005 -0.000591293 0
0.00520049 0.00580467 0
0 0 0
-0.0103005 -0.000591293 0
0 0 0
-0.0229707 -0.0312408 0
-0.0103005 -0.000591293 0
-0.026687 -0.0399223 0
-0.0105048 -0.0258409 0
-0.0103005 -0.000591293 0
0 0 0
-0.0105048 -0.0258409 0
0 0 0
-0.026687 -0.0399223 0
-0.0105048 -0.0258409 0
-0.0113084 -0.0295909 0
-0.0124624 -0.053463 0
-0.0105048 -0.0258409 0
0 0 0
-0.0124624 -0.053463 0
0 0 0
-0.0113084 -0.0295909 0
-0.0124624 -0.053463 0
-0.00744637 -0.0185787 0
-0.00140421 -0.0702594 0
-0.0124624 -0.053463 0
0 0 0
-0.00140421 -0.0702594 0
0 0 0
-0.00744637 -0.0185787 0
-0.00140421 -0.0702594 0
0.009932 0.00614665 0
-0.00820758 -0.0820353 0
-0.00140421 -0.0702594 0
0 0 0
-0.00820758 -0.0820353 0
0 0 0
0.18011 0.00926024 0
0.188168 0.0087639 0
0.184562 0.00591061 0
0.183462 0.00579831 0
0.188168 0.0087639 0
0.127293 0.00330093 0
0.183462 0.00579831 0
0.124311 0.00243423 0
0.184562 0.00591061 0
0.183462 0.00579831 0
0.18806 0.0035636 0
0.180667 0.00398992 0
0.183462 0.00579831 0
0.124311 0.00243423 0
0.180667 0.00398992 0
0.122054 0.00139478 0
0.207709 0.00632418 0
0.0385993 0.00575762 0
0.197705 0.00618513 0
0.0475699 0.00562552 0
0.0385993 0.00575762 0
0.288117 6.76331e-09 0
0.0475699 0.00562552 0
0.269455 9.65233e-09 0
0.197705 0.00618513 0
0.0475699 0.00562552 0
0.188646 0.00599292 0
0.0553585 0.00524261 0
0.0475699 0.00562552 0
0.269455 9.65233e-09 0
0.0553585 0.00524261 0
0.252527 1.61085e-08 0
0.188646 0.00599292 0
0.0553585 0.00524261 0
0.180177 0.00560178 0
0.0623845 0.00500612 0
0.0553585 0.00524261 0
0.252527 1.61085e-08 0
0.0623845 0.00500612 0
0.236978 1.89059e-08 0
0.180177 0.00560178 0
0.0623845 0.00500612 0
0.172392 0.00525203 0
0.0687757 0.00461227 0
0.0623845 0.00500612 0
0.236978 1.89059e-08 0
0.0687757 0.00461227 0
0.222637 1.99502e-08 0
0.172392 0.00525203 0
0.0687757 0.00461227 0
0.165263 0.00497962 0
0.0744702 0.00440102 0
0.0687757 0.00461227 0
0.222637 1.99502e-08 0
0.0744702 0.00440102 0
0.209559 1.28888e-08 0
0.165263 0.00497962 0
0.0744702 0.00440102 0
0.15868 0.00500498 0
0.0793868 0.00406461 0
0.0744702 0.00440102 0
0.209559 1.28888e-08 0
0.0793868 0.00406461 0
0.197784 6.75132e-09 0
0.15868 0.00500498 0
0.0793868 0.00406461 0
0.15252 0.00502099 0
0.0835007 0.0040305 0
0.0793868 0.00406461 0
0.197784 6.75132e-09 0
0.0835007 0.0040305 0
0.187189 -5.15533e-10 0
0.15252 0.00502099 0
0.0835007 0.0040305 0
0.146664 0.00511014 0
0.0868915 0.00374442 0
0.0835007 0.0040305 0
0.187189 -5.15533e-10 0
0.0868915 0.00374442 0
0.177554 -4.9387e-09 0
0.146664 0.00511014 0
0.0868915 0.00374442 0
0.141088 0.00507235 0
0.0895756 0.00374218 0
0.0868915 0.00374442 0
0.177554 -4.9387e-09 0
0.0895756 0.00374218 0
0.168868 -1.69471e-08 0
0.141088 0.00507235 0
0.0895756 0.00374218 0
0.135826 0.00510203 0
0.0916421 0.0033772 0
0.0895756 0.00374218 0
0.168868 -1.69471e-08 0
0.0916421 0.0033772 0
0.161162 -2.07655e-08 0
0.135826 0.00510203 0
0.0916421 0.0033772 0
0.131078 0.00447317 0
0.0933447 0.00339657 0
0.0916421 0.0033772 0
0.161162 -2.07655e-08 0
0.0933447 0.00339657 0
0.154186 -1.51855e-08 0
0.131078 0.00447317 0
0.0933447 0.00339657 0
0.127293 0.00330093 0
0.0949552 0.00277584 0
0.0933447 0.00339657 0
0.154186 -1.51855e-08 0