# vtk DataFile Version 3.0
#This file was generated by the deal.II library on 2026/3/26 at 11:15:36
ASCII
DATASET UNSTRUCTURED_GRID

POINTS 3648 double
0 0 0
0.214286 0 0
0 0.25 0
0.214286 0.25 0
0 0.25 0
0.214286 0.25 0
0 0.5 0
0.214286 0.5 0
0.214286 0 0
0.428571 0 0
0.214286 0.25 0
0.428571 0.25 0
0.214286 0.25 0
0.428571 0.25 0
0.214286 0.5 0
0.428571 0.5 0
0.428571 0 0
0.642857 0 0
0.428571 0.25 0
0.642857 0.25 0
0.428571 0.25 0
0.642857 0.25 0
0.428571 0.5 0
0.642857 0.5 0
0.428571 0.5 0
0.642857 0.5 0
0.428571 0.75 0
0.642857 0.75 0
0.642857 0 0
0.857143 0 0
0.642857 0.25 0
0.857143 0.25 0
0.642857 0.25 0
0.857143 0.25 0
0.642857 0.5 0
0.857143 0.5 0
0.642857 0.5 0
0.857143 0.5 0
0.642857 0.75 0
0.857143 0.75 0
0.857143 0 0
1.07143 0 0
0.857143 0.25 0
1.07143 0.25 0
0.857143 0.25 0
1.07143 0.25 0
0.857143 0.5 0
1.07143 0.5 0
0.857143 0.5 0
1.07143 0.5 0
0.857143 0.75 0
1.07143 0.75 0
1.07143 0 0
1.28571 0 0
1.07143 0.25 0
1.28571 0.25 0
1.07143 0.25 0
1.28571 0.25 0
1.07143 0.5 0
1.28571 0.5 0
1.07143 0.5 0
1.28571 0.5 0
1.07143 0.75 0
1.28571 0.75 0
1.28571 0 0
1.5 0 0
1.28571 0.25 0
1.5 0.25 0
1.28571 0.25 0
1.5 0.25 0
1.28571 0.5 0
1.5 0.5 0
1.5 0 0
1.71429 0 0
1.5 0.25 0
1.71429 0.25 0
1.5 0.25 0
1.71429 0.25 0
1.5 0.5 0
1.71429 0.5 0
1.71429 0 0
1.92857 0 0
1.71429 0.25 0
1.92857 0.25 0
1.71429 0.25 0
1.92857 0.25 0
1.71429 0.5 0
1.92857 0.5 0
1.92857 0 0
2.14286 0 0
1.92857 0.25 0
2.14286 0.25 0
1.92857 0.25 0
2.14286 0.25 0
1.92857 0.5 0
2.14286 0.5 0
0 3 0
0 2.75 0
0.214286 3 0
0.214286 2.75 0
0.214286 3 0
0.214286 2.75 0
0.428571 3 0
0.428571 2.75 0
0.428571 3 0
0.428571 2.75 0
0.642857 3 0
0.642857 2.75 0
0.642857 3 0
0.642857 2.75 0
0.857143 3 0
0.857143 2.75 0
0.857143 3 0
0.857143 2.75 0
1.07143 3 0
1.07143 2.75 0
1.07143 3 0
1.07143 2.75 0
1.28571 3 0
1.28571 2.75 0
1.28571 3 0
1.28571 2.75 0
1.5 3 0
1.5 2.75 0
1.5 3 0
1.5 2.75 0
1.71429 3 0
1.71429 2.75 0
1.71429 3 0
1.71429 2.75 0
1.92857 3 0
1.92857 2.75 0
1.92857 3 0
1.92857 2.75 0
2.14286 3 0
2.14286 2.75 0
0 2.75 0
0 2.5 0
0.214286 2.75 0
0.214286 2.5 0
0.214286 2.75 0
0.214286 2.5 0
0.428571 2.75 0
0.428571 2.5 0
0.428571 2.75 0
0.428571 2.5 0
0.642857 2.75 0
0.642857 2.5 0
0.642857 2.75 0
0.642857 2.5 0
0.857143 2.75 0
0.857143 2.5 0
0.857143 2.75 0
0.857143 2.5 0
1.07143 2.75 0
1.07143 2.5 0
1.07143 2.75 0
1.07143 2.5 0
1.28571 2.75 0
1.28571 2.5 0
1.28571 2.75 0
1.28571 2.5 0
1.5 2.75 0
1.5 2.5 0
1.5 2.75 0
1.5 2.5 0
1.71429 2.75 0
1.71429 2.5 0
1.71429 2.75 0
1.71429 2.5 0
1.92857 2.75 0
1.92857 2.5 0
1.92857 2.75 0
1.92857 2.5 0
2.14286 2.75 0
2.14286 2.5 0
0.428571 2.5 0
0.428571 2.25 0
0.642857 2.5 0
0.642857 2.25 0
0.642857 2.5 0
0.642857 2.25 0
0.857143 2.5 0
0.857143 2.25 0
0.857143 2.5 0
0.857143 2.25 0
1.07143 2.5 0
1.07143 2.25 0
1.07143 2.5 0
1.07143 2.25 0
1.28571 2.5 0
1.28571 2.25 0
0.214286 0.75 0
0.321429 0.75 0
0.214286 0.875 0
0.321429 0.875 0
0.321429 0.75 0
0.428571 0.75 0
0.321429 0.875 0
0.428571 0.875 0
0.214286 0.875 0
0.321429 0.875 0
0.214286 1 0
0.321429 1 0
0.321429 0.875 0
0.428571 0.875 0
0.321429 1 0
0.428571 1 0
0.428571 0.75 0
0.535714 0.75 0
0.428571 0.875 0
0.535714 0.875 0
0.535714 0.75 0
0.642857 0.75 0
0.535714 0.875 0
0.642857 0.875 0
0.428571 0.875 0
0.535714 0.875 0
0.428571 1 0
0.535714 1 0
0.535714 0.875 0
0.642857 0.875 0
0.535714 1 0
0.642857 1 0
0.642857 0.75 0
0.75 0.75 0
0.642857 0.875 0
0.75 0.875 0
0.75 0.75 0
0.857143 0.75 0
0.75 0.875 0
0.857143 0.875 0
0.642857 0.875 0
0.75 0.875 0
0.642857 1 0
0.75 1 0
0.75 0.875 0
0.857143 0.875 0
0.75 1 0
0.857143 1 0
0.857143 0.75 0
0.964286 0.75 0
0.857143 0.875 0
0.964286 0.875 0
0.964286 0.75 0
1.07143 0.75 0
0.964286 0.875 0
1.07143 0.875 0
0.857143 0.875 0
0.964286 0.875 0
0.857143 1 0
0.964286 1 0
0.964286 0.875 0
1.07143 0.875 0
0.964286 1 0
1.07143 1 0
1.07143 0.75 0
1.17857 0.75 0
1.07143 0.875 0
1.17857 0.875 0
1.17857 0.75 0
1.28571 0.75 0
1.17857 0.875 0
1.28571 0.875 0
1.07143 0.875 0
1.17857 0.875 0
1.07143 1 0
1.17857 1 0
1.17857 0.875 0
1.28571 0.875 0
1.17857 1 0
1.28571 1 0
0.214286 2 0
0.214286 1.875 0
0.321429 2 0
0.321429 1.875 0
0.214286 1.875 0
0.214286 1.75 0
0.321429 1.875 0
0.321429 1.75 0
0.321429 2 0
0.321429 1.875 0
0.428571 2 0
0.428571 1.875 0
0.321429 1.875 0
0.321429 1.75 0
0.428571 1.875 0
0.428571 1.75 0
0.428571 2 0
0.428571 1.875 0
0.535714 2 0
0.535714 1.875 0
0.428571 1.875 0
0.428571 1.75 0
0.535714 1.875 0
0.535714 1.75 0
0.535714 2 0
0.535714 1.875 0
0.642857 2 0
0.642857 1.875 0
0.535714 1.875 0
0.535714 1.75 0
0.642857 1.875 0
0.642857 1.75 0
0.642857 2 0
0.642857 1.875 0
0.75 2 0
0.75 1.875 0
0.642857 1.875 0
0.642857 1.75 0
0.75 1.875 0
0.75 1.75 0
0.75 2 0
0.75 1.875 0
0.857143 2 0
0.857143 1.875 0
0.75 1.875 0
0.75 1.75 0
0.857143 1.875 0
0.857143 1.75 0
0.857143 2 0
0.857143 1.875 0
0.964286 2 0
0.964286 1.875 0
0.857143 1.875 0
0.857143 1.75 0
0.964286 1.875 0
0.964286 1.75 0
0.964286 2 0
0.964286 1.875 0
1.07143 2 0
1.07143 1.875 0
0.964286 1.875 0
0.964286 1.75 0
1.07143 1.875 0
1.07143 1.75 0
1.07143 2 0
1.07143 1.875 0
1.17857 2 0
1.17857 1.875 0
1.07143 1.875 0
1.07143 1.75 0
1.17857 1.875 0
1.17857 1.75 0
1.17857 2 0
1.17857 1.875 0
1.28571 2 0
1.28571 1.875 0
1.17857 1.875 0
1.17857 1.75 0
1.28571 1.875 0
1.28571 1.75 0
0.214286 1.25 0
0.214286 1.125 0
0.321429 1.25 0
0.321429 1.125 0
0.214286 1.125 0
0.214286 1 0
0.321429 1.125 0
0.321429 1 0
0.321429 1.25 0
0.321429 1.125 0
0.428571 1.25 0
0.428571 1.125 0
0.321429 1.125 0
0.321429 1 0
0.428571 1.125 0
0.428571 1 0
0.428571 1.25 0
0.428571 1.125 0
0.535714 1.25 0
0.535714 1.125 0
0.428571 1.125 0
0.428571 1 0
0.535714 1.125 0
0.535714 1 0
0.535714 1.25 0
0.535714 1.125 0
0.642857 1.25 0
0.642857 1.125 0
0.535714 1.125 0
0.535714 1 0
0.642857 1.125 0
0.642857 1 0
0.642857 1.25 0
0.642857 1.125 0
0.75 1.25 0
0.75 1.125 0
0.642857 1.125 0
0.642857 1 0
0.75 1.125 0
0.75 1 0
0.75 1.25 0
0.75 1.125 0
0.857143 1.25 0
0.857143 1.125 0
0.75 1.125 0
0.75 1 0
0.857143 1.125 0
0.857143 1 0
0.857143 1.25 0
0.857143 1.125 0
0.964286 1.25 0
0.964286 1.125 0
0.857143 1.125 0
0.857143 1 0
0.964286 1.125 0
0.964286 1 0
0.964286 1.25 0
0.964286 1.125 0
1.07143 1.25 0
1.07143 1.125 0
0.964286 1.125 0
0.964286 1 0
1.07143 1.125 0
1.07143 1 0
1.07143 1.25 0
1.07143 1.125 0
1.17857 1.25 0
1.17857 1.125 0
1.07143 1.125 0
1.07143 1 0
1.17857 1.125 0
1.17857 1 0
1.17857 1.25 0
1.17857 1.125 0
1.28571 1.25 0
1.28571 1.125 0
1.17857 1.125 0
1.17857 1 0
1.28571 1.125 0
1.28571 1 0
0.214286 2.25 0
0.214286 2.125 0
0.321429 2.25 0
0.321429 2.125 0
0.214286 2.125 0
0.214286 2 0
0.321429 2.125 0
0.321429 2 0
0.321429 2.25 0
0.321429 2.125 0
0.428571 2.25 0
0.428571 2.125 0
0.321429 2.125 0
0.321429 2 0
0.428571 2.125 0
0.428571 2 0
0.428571 2.25 0
0.428571 2.125 0
0.535714 2.25 0
0.535714 2.125 0
0.428571 2.125 0
0.428571 2 0
0.535714 2.125 0
0.535714 2 0
0.535714 2.25 0
0.535714 2.125 0
0.642857 2.25 0
0.642857 2.125 0
0.535714 2.125 0
0.535714 2 0
0.642857 2.125 0
0.642857 2 0
0.642857 2.25 0
0.642857 2.125 0
0.75 2.25 0
0.75 2.125 0
0.642857 2.125 0
0.642857 2 0
0.75 2.125 0
0.75 2 0
0.75 2.25 0
0.75 2.125 0
0.857143 2.25 0
0.857143 2.125 0
0.75 2.125 0
0.75 2 0
0.857143 2.125 0
0.857143 2 0
0.857143 2.25 0
0.857143 2.125 0
0.964286 2.25 0
0.964286 2.125 0
0.857143 2.125 0
0.857143 2 0
0.964286 2.125 0
0.964286 2 0
0.964286 2.25 0
0.964286 2.125 0
1.07143 2.25 0
1.07143 2.125 0
0.964286 2.125 0
0.964286 2 0
1.07143 2.125 0
1.07143 2 0
1.07143 2.25 0
1.07143 2.125 0
1.17857 2.25 0
1.17857 2.125 0
1.07143 2.125 0
1.07143 2 0
1.17857 2.125 0
1.17857 2 0
1.17857 2.25 0
1.17857 2.125 0
1.28571 2.25 0
1.28571 2.125 0
1.17857 2.125 0
1.17857 2 0
1.28571 2.125 0
1.28571 2 0
0 0.5 0
0.107143 0.5 0
0 0.625 0
0.107143 0.625 0
0.107143 0.5 0
0.214286 0.5 0
0.107143 0.625 0
0.214286 0.625 0
0 0.625 0
0.107143 0.625 0
0 0.75 0
0.107143 0.75 0
0.107143 0.625 0
0.214286 0.625 0
0.107143 0.75 0
0.214286 0.75 0
0.214286 0.5 0
0.321429 0.5 0
0.214286 0.625 0
0.321429 0.625 0
0.321429 0.5 0
0.428571 0.5 0
0.321429 0.625 0
0.428571 0.625 0
0.214286 0.625 0
0.321429 0.625 0
0.214286 0.75 0
0.321429 0.75 0
0.321429 0.625 0
0.428571 0.625 0
0.321429 0.75 0
0.428571 0.75 0
1.28571 0.5 0
1.39286 0.5 0
1.28571 0.625 0
1.39286 0.625 0
1.39286 0.5 0
1.5 0.5 0
1.39286 0.625 0
1.5 0.625 0
1.28571 0.625 0
1.39286 0.625 0
1.28571 0.75 0
1.39286 0.75 0
1.39286 0.625 0
1.5 0.625 0
1.39286 0.75 0
1.5 0.75 0
1.28571 0.75 0
1.39286 0.75 0
1.28571 0.875 0
1.39286 0.875 0
1.39286 0.75 0
1.5 0.75 0
1.39286 0.875 0
1.5 0.875 0
1.28571 0.875 0
1.39286 0.875 0
1.28571 1 0
1.39286 1 0
1.39286 0.875 0
1.5 0.875 0
1.39286 1 0
1.5 1 0
1.5 0.5 0
1.60714 0.5 0
1.5 0.625 0
1.60714 0.625 0
1.60714 0.5 0
1.71429 0.5 0
1.60714 0.625 0
1.71429 0.625 0
1.5 0.625 0
1.60714 0.625 0
1.5 0.75 0
1.60714 0.75 0
1.60714 0.625 0
1.71429 0.625 0
1.60714 0.75 0
1.71429 0.75 0
1.71429 0.5 0
1.82143 0.5 0
1.71429 0.625 0
1.82143 0.625 0
1.82143 0.5 0
1.92857 0.5 0
1.82143 0.625 0
1.92857 0.625 0
1.71429 0.625 0
1.82143 0.625 0
1.71429 0.75 0
1.82143 0.75 0
1.82143 0.625 0
1.92857 0.625 0
1.82143 0.75 0
1.92857 0.75 0
1.92857 0.5 0
2.03571 0.5 0
1.92857 0.625 0
2.03571 0.625 0
2.03571 0.5 0
2.14286 0.5 0
2.03571 0.625 0
2.14286 0.625 0
1.92857 0.625 0
2.03571 0.625 0
1.92857 0.75 0
2.03571 0.75 0
2.03571 0.625 0
2.14286 0.625 0
2.03571 0.75 0
2.14286 0.75 0
2.14286 0 0
2.25 0 0
2.14286 0.125 0
2.25 0.125 0
2.25 0 0
2.35714 0 0
2.25 0.125 0
2.35714 0.125 0
2.14286 0.125 0
2.25 0.125 0
2.14286 0.25 0
2.25 0.25 0
2.25 0.125 0
2.35714 0.125 0
2.25 0.25 0
2.35714 0.25 0
2.14286 0.25 0
2.25 0.25 0
2.14286 0.375 0
2.25 0.375 0
2.25 0.25 0
2.35714 0.25 0
2.25 0.375 0
2.35714 0.375 0
2.14286 0.375 0
2.25 0.375 0
2.14286 0.5 0
2.25 0.5 0
2.25 0.375 0
2.35714 0.375 0
2.25 0.5 0
2.35714 0.5 0
2.14286 0.5 0
2.25 0.5 0
2.14286 0.625 0
2.25 0.625 0
2.25 0.5 0
2.35714 0.5 0
2.25 0.625 0
2.35714 0.625 0
2.14286 0.625 0
2.25 0.625 0
2.14286 0.75 0
2.25 0.75 0
2.25 0.625 0
2.35714 0.625 0
2.25 0.75 0
2.35714 0.75 0
2.35714 0 0
2.46429 0 0
[...]
POINT_DATA 3648
VECTORS velocity double
0 0 0
0 0 0
0 0 0
-0.0114365 0.0128555 0
0 0 0
-0.0114365 0.0128555 0
0 0 0
-0.00128098 0.02781 0
0 0 0
0 0 0
-0.0114365 0.0128555 0
-0.0333844 0.0125328 0
-0.0114365 0.0128555 0
-0.0333844 0.0125328 0
-0.00128098 0.02781 0
-0.0012342 0.0234752 0
0 0 0
0 0 0
-0.0333844 0.0125328 0
-0.0502963 0.00751682 0
-0.0333844 0.0125328 0
-0.0502963 0.00751682 0
-0.0012342 0.0234752 0
-0.00196587 0.0171602 0
-0.0012342 0.0234752 0
-0.00196587 0.0171602 0
0.0199778 0.0148416 0
0.0340316 0.0108259 0
0 0 0
0 0 0
-0.0502963 0.00751682 0
-0.056319 -0.000258541 0
-0.0502963 0.00751682 0
-0.056319 -0.000258541 0
-0.00196587 0.0171602 0
0.00406072 -0.0108999 0
-0.00196587 0.0171602 0
0.00406072 -0.0108999 0
0.0340316 0.0108259 0
0.0326054 -0.00975731 0
0 0 0
0 0 0
-0.056319 -0.000258541 0
-0.0469487 -0.0104689 0
-0.056319 -0.000258541 0
-0.0469487 -0.0104689 0
0.00406072 -0.0108999 0
0.0074203 -0.0146219 0
0.00406072 -0.0108999 0
0.0074203 -0.0146219 0
0.0326054 -0.00975731 0
0.0167923 -0.000256032 0
0 0 0
0 0 0
-0.0469487 -0.0104689 0
-0.00740794 -0.0378724 0
-0.0469487 -0.0104689 0
-0.00740794 -0.0378724 0
0.0074203 -0.0146219 0
-0.0188485 -0.0493398 0
0.0074203 -0.0146219 0
-0.0188485 -0.0493398 0
0.0167923 -0.000256032 0
0.0075124 -0.0226682 0
0 0 0
0 0 0
-0.00740794 -0.0378724 0
0.0744327 -0.0589119 0
-0.00740794 -0.0378724 0
0.0744327 -0.0589119 0
-0.0188485 -0.0493398 0
-0.0685704 -0.0831657 0
0 0 0
0 0 0
0.0744327 -0.0589119 0
0.0849055 0.0472763 0
0.0744327 -0.0589119 0
0.0849055 0.0472763 0
-0.0685704 -0.0831657 0
-0.068636 0.057569 0
0 0 0
0 0 0
0.0849055 0.0472763 0
0.0297416 0.0167896 0
0.0849055 0.0472763 0
0.0297416 0.0167896 0
-0.068636 0.057569 0
-0.0428721 0.0413382 0
0 0 0
0 0 0
0.0297416 0.0167896 0
-0.0087152 0.0269342 0
0.0297416 0.0167896 0
-0.0087152 0.0269342 0
-0.0428721 0.0413382 0
-0.0128242 0.0119065 0
0 0 0
0 0 0
0 0 0
-0.0116697 -0.0131207 0
0 0 0
-0.0116697 -0.0131207 0
0 0 0
-0.0342872 -0.0130439 0
0 0 0
-0.0342872 -0.0130439 0
0 0 0
-0.0516509 -0.00758797 0
0 0 0
-0.0516509 -0.00758797 0
0 0 0
-0.0574071 0.000596303 0
0 0 0
-0.0574071 0.000596303 0
0 0 0
-0.0473914 0.010851 0
0 0 0
-0.0473914 0.010851 0
0 0 0
-0.00635165 0.039337 0
0 0 0
-0.00635165 0.039337 0
0 0 0
0.0748961 0.0565757 0
0 0 0
0.0748961 0.0565757 0
0 0 0
0.0839432 -0.0465025 0
0 0 0
0.0839432 -0.0465025 0
0 0 0
0.0291392 -0.0172367 0
0 0 0
0.0291392 -0.0172367 0
0 0 0
-0.00945645 -0.0265785 0
0 0 0
0 0 0
-0.0116697 -0.0131207 0
-0.00150598 -0.0286026 0
-0.0116697 -0.0131207 0
-0.00150598 -0.0286026 0
-0.0342872 -0.0130439 0
-0.00150416 -0.0242667 0
-0.0342872 -0.0130439 0
-0.00150416 -0.0242667 0
-0.0516509 -0.00758797 0
-0.0023259 -0.0175802 0
-0.0516509 -0.00758797 0
-0.0023259 -0.0175802 0
-0.0574071 0.000596303 0
0.00382913 0.0121428 0
-0.0574071 0.000596303 0
0.00382913 0.0121428 0
-0.0473914 0.010851 0
0.00759176 0.0152568 0
-0.0473914 0.010851 0
0.00759176 0.0152568 0
-0.00635165 0.039337 0
-0.0202851 0.0504623 0
-0.00635165 0.039337 0
-0.0202851 0.0504623 0
0.0748961 0.0565757 0
-0.0680063 0.0827281 0
0.0748961 0.0565757 0
-0.0680063 0.0827281 0
0.0839432 -0.0465025 0
-0.0671819 -0.0587939 0
0.0839432 -0.0465025 0
-0.0671819 -0.0587939 0
0.0291392 -0.0172367 0
-0.0425066 -0.0409163 0
0.0291392 -0.0172367 0
-0.0425066 -0.0409163 0
-0.00945645 -0.0265785 0
-0.0124838 -0.0124971 0
-0.00150416 -0.0242667 0
0.0204814 -0.0153803 0
-0.0023259 -0.0175802 0
0.035062 -0.0109651 0
-0.0023259 -0.0175802 0
0.035062 -0.0109651 0
0.00382913 0.0121428 0
0.0334321 0.0106645 0
0.00382913 0.0121428 0
0.0334321 0.0106645 0
0.00759176 0.0152568 0
0.0164426 0.000314329 0
0.00759176 0.0152568 0
0.0164426 0.000314329 0
-0.0202851 0.0504623 0
0.00780024 0.023352 0
0.00628385 0.020339 0
0.014832 0.0221787 0
0.00306529 0.0114042 0
0.00987735 0.0130401 0
0.014832 0.0221787 0
0.0199778 0.0148416 0
0.00987735 0.0130401 0
0.0182873 0.00835122 0
0.00306529 0.0114042 0
0.00987735 0.0130401 0
0.0521478 -0.00345134 0
0.0742659 -0.00515971 0
0.00987735 0.0130401 0
0.0182873 0.00835122 0
0.0742659 -0.00515971 0
0.0932161 -0.00510726 0
0.0199778 0.0148416 0
0.026595 0.0123812 0
0.0182873 0.00835122 0
0.0232251 0.0056357 0
0.026595 0.0123812 0
0.0340316 0.0108259 0
0.0232251 0.0056357 0
0.0277717 0.00392914 0
0.0182873 0.00835122 0
0.0232251 0.0056357 0
0.0932161 -0.00510726 0
0.109599 -0.00597851 0
0.0232251 0.0056357 0
0.0277717 0.00392914 0
0.109599 -0.00597851 0
0.123512 -0.006531 0
0.0340316 0.0108259 0
0.0375526 0.00128959 0
0.0277717 0.00392914 0
0.0311074 0.00067974 0
0.0375526 0.00128959 0
0.0326054 -0.00975731 0
0.0311074 0.00067974 0
0.0309558 -0.00258444 0
0.0277717 0.00392914 0
0.0311074 0.00067974 0
0.123512 -0.006531 0
0.1356 -0.00755335 0
0.0311074 0.00067974 0
0.0309558 -0.00258444 0
0.1356 -0.00755335 0
0.146375 -0.00751598 0
0.0326054 -0.00975731 0
0.0241151 -0.00598061 0
0.0309558 -0.00258444 0
0.0303142 -0.00214667 0
0.0241151 -0.00598061 0
0.0167923 -0.000256032 0
0.0303142 -0.00214667 0
0.0344139 -0.000117773 0
0.0309558 -0.00258444 0
0.0303142 -0.00214667 0
0.146375 -0.00751598 0
0.155879 -0.00844263 0
0.0303142 -0.00214667 0
0.0344139 -0.000117773 0
0.155879 -0.00844263 0
0.163811 -0.00877571 0
0.0167923 -0.000256032 0
0.0110225 -0.00993522 0
0.0344139 -0.000117773 0
0.037573 -0.0067622 0
0.0110225 -0.00993522 0
0.0075124 -0.0226682 0
0.037573 -0.0067622 0
0.030157 -0.0126615 0
0.0344139 -0.000117773 0
0.037573 -0.0067622 0
0.163811 -0.00877571 0
0.170289 -0.0100591 0
0.037573 -0.0067622 0
0.030157 -0.0126615 0
0.170289 -0.0100591 0
0.175911 -0.0074771 0
0.0516175 0.00329826 0
0.239926 0.0131645 0
0.0734365 0.00492354 0
0.233132 0.0122014 0
0.239926 0.0131645 0
0.16053 0.00657909 0
0.233132 0.0122014 0
0.15631 0.00622228 0
0.0734365 0.00492354 0
0.233132 0.0122014 0
0.0921651 0.00480825 0
0.226751 0.0111578 0
0.233132 0.0122014 0
0.15631 0.00622228 0
0.226751 0.0111578 0
0.152541 0.00565923 0
0.0921651 0.00480825 0
0.226751 0.0111578 0
0.108381 0.005686 0
0.220675 0.0101742 0
0.226751 0.0111578 0
0.152541 0.00565923 0
0.220675 0.0101742 0
0.149224 0.00527909 0
0.108381 0.005686 0
0.220675 0.0101742 0
0.122182 0.00626041 0
0.214825 0.00991687 0
0.220675 0.0101742 0
0.149224 0.00527909 0
0.214825 0.00991687 0
0.146219 0.0051132 0
0.122182 0.00626041 0
0.214825 0.00991687 0
0.13419 0.00736674 0
0.209001 0.00944648 0
0.214825 0.00991687 0
0.146219 0.0051132 0
0.209001 0.00944648 0
0.143489 0.00490873 0
0.13419 0.00736674 0
0.209001 0.00944648 0
0.144923 0.0073158 0
0.203054 0.00933672 0
0.209001 0.00944648 0
0.143489 0.00490873 0
0.203054 0.00933672 0
0.141002 0.0047193 0
0.144923 0.0073158 0
0.203054 0.00933672 0
0.154438 0.00828644 0
0.196986 0.00884673 0
0.203054 0.00933672 0
0.141002 0.0047193 0
0.196986 0.00884673 0
0.138727 0.00448084 0
0.154438 0.00828644 0
0.196986 0.00884673 0
0.162397 0.00865006 0
0.190968 0.00919785 0
0.196986 0.00884673 0
0.138727 0.00448084 0
0.190968 0.00919785 0
0.136564 0.00466337 0
0.162397 0.00865006 0
0.190968 0.00919785 0
0.168909 0.010014 0
0.184883 0.00852059 0
0.190968 0.00919785 0
0.136564 0.00466337 0
0.184883 0.00852059 0
0.134585 0.00399328 0
0.168909 0.010014 0
0.184883 0.00852059 0
0.174631 0.00731154 0
0.178768 0.00727954 0
0.184883 0.00852059 0
0.134585 0.00399328 0
0.178768 0.00727954 0
0.133002 0.00322197 0
0.158732 -0.00669143 0
0.238852 -0.013434 0
0.15437 -0.00633399 0
0.231912 -0.0124892 0
0.238852 -0.013434 0
0.0521478 -0.00345134 0
0.231912 -0.0124892 0
0.0742659 -0.00515971 0
0.15437 -0.00633399 0
0.231912 -0.0124892 0
0.150479 -0.00576946 0
0.225355 -0.0114349 0
0.231912 -0.0124892 0
0.0742659 -0.00515971 0
0.225355 -0.0114349 0
0.0932161 -0.00510726 0
0.150479 -0.00576946 0
0.225355 -0.0114349 0
0.147065 -0.00536409 0
0.219087 -0.0104258 0
0.225355 -0.0114349 0
0.0932161 -0.00510726 0
0.219087 -0.0104258 0
0.109599 -0.00597851 0
0.147065 -0.00536409 0
0.219087 -0.0104258 0
0.143991 -0.005177 0
0.213055 -0.0101021 0
0.219087 -0.0104258 0
0.109599 -0.00597851 0
0.213055 -0.0101021 0
0.123512 -0.006531 0
0.143991 -0.005177 0
0.213055 -0.0101021 0
0.141223 -0.00494454 0
0.207066 -0.00958766 0
0.213055 -0.0101021 0
0.123512 -0.006531 0
0.207066 -0.00958766 0
0.1356 -0.00755335 0
0.141223 -0.00494454 0
0.207066 -0.00958766 0
0.138723 -0.00475075 0
0.200976 -0.00943395 0
0.207066 -0.00958766 0
0.1356 -0.00755335 0
0.200976 -0.00943395 0
0.146375 -0.00751598 0
0.138723 -0.00475075 0
0.200976 -0.00943395 0
0.136453 -0.00447233 0
0.194786 -0.00891171 0
0.200976 -0.00943395 0
0.146375 -0.00751598 0
0.194786 -0.00891171 0
0.155879 -0.00844263 0
0.136453 -0.00447233 0
0.194786 -0.00891171 0
0.134311 -0.00463805 0
0.188656 -0.00921 0
0.194786 -0.00891171 0
0.155879 -0.00844263 0
0.188656 -0.00921 0
0.163811 -0.00877571 0
0.134311 -0.00463805 0
0.188656 -0.00921 0
0.132363 -0.00396447 0
0.182475 -0.00852333 0
0.188656 -0.00921 0
0.163811 -0.00877571 0
0.182475 -0.00852333 0
0.170289 -0.0100591 0
0.132363 -0.00396447 0
0.182475 -0.00852333 0
0.130805 -0.00322477 0
0.1763 -0.00729615 0
0.182475 -0.00852333 0
0.170289 -0.0100591 0
0.1763 -0.00729615 0
0.175911 -0.0074771 0
0.00666016 -0.0210912 0
0.00357788 -0.0117317 0
0.0152997 -0.0226792 0
0.0108744 -0.0133056 0
0.00357788 -0.0117317 0
0.0516175 0.00329826 0
0.0108744 -0.0133056 0
0.0734365 0.00492354 0
0.0152997 -0.0226792 0
0.0108744 -0.0133056 0
0.0204814 -0.0153803 0
0.0196032 -0.0087172 0
0.0108744 -0.0133056 0
0.0734365 0.00492354 0
0.0196032 -0.0087172 0
0.0921651 0.00480825 0
0.0204814 -0.0153803 0
0.0196032 -0.0087172 0
0.0272326 -0.0126913 0
0.0246784 -0.00580416 0
0.0196032 -0.0087172 0
0.0921651 0.00480825 0
0.0246784 -0.00580416 0
0.108381 0.005686 0
0.0272326 -0.0126913 0
0.0246784 -0.00580416 0
0.035062 -0.0109651 0
0.0290444 -0.00395946 0
0.0246784 -0.00580416 0
0.108381 0.005686 0
0.0290444 -0.00395946 0
0.122182 0.00626041 0
0.035062 -0.0109651 0
0.0290444 -0.00395946 0
0.0387959 -0.00098564 0
0.0320654 -0.000608273 0
0.0290444 -0.00395946 0
0.122182 0.00626041 0
0.0320654 -0.000608273 0
0.13419 0.00736674 0
0.0387959 -0.00098564 0
0.0320654 -0.000608273 0
0.0334321 0.0106645 0
0.031484 0.0027168 0
0.0320654 -0.000608273 0
0.13419 0.00736674 0
0.031484 0.0027168 0
0.144923 0.0073158 0
0.0334321 0.0106645 0
0.031484 0.0027168 0
0.0242823 0.0065749 0
0.0303797 0.00220236 0
0.031484 0.0027168 0
0.144923 0.0073158 0
0.0303797 0.00220236 0
0.154438 0.00828644 0
0.0242823 0.0065749 0
0.0303797 0.00220236 0
0.0164426 0.000314329 0
0.0343276 -7.56222e-05 0
0.0303797 0.00220236 0
0.154438 0.00828644 0
0.0343276 -7.56222e-05 0
0.162397 0.00865006 0
0.0164426 0.000314329 0
0.0343276 -7.56222e-05 0
0.0106041 0.0101906 0
0.037317 0.00695119 0
0.0343276 -7.56222e-05 0
0.162397 0.00865006 0
0.037317 0.00695119 0
0.168909 0.010014 0
0.0106041 0.0101906 0
0.037317 0.00695119 0
0.00780024 0.023352 0
0.0290412 0.0131646 0
0.037317 0.00695119 0
0.168909 0.010014 0
0.0290412 0.0131646 0
0.174631 0.00731154 0
0 0 0
-0.000283152 0.0142673 0
0 0 0
0.00114481 0.0135518 0
-0.000283152 0.0142673 0
-0.00128098 0.02781 0
0.00114481 0.0135518 0
0.0026461 0.0281762 0
0 0 0
0.00114481 0.0135518 0
0 0 0
-3.36514e-05 0.0125869 0
0.00114481 0.0135518 0
0.0026461 0.0281762 0
-3.36514e-05 0.0125869 0
0.00628385 0.020339 0
-0.00128098 0.02781 0
-0.0019429 0.0255588 0
0.0026461 0.0281762 0
0.00365461 0.0251028 0
-0.0019429 0.0255588 0
-0.0012342 0.0234752 0
0.00365461 0.0251028 0
0.006054 0.0205672 0
0.0026461 0.0281762 0
0.00365461 0.0251028 0
0.00628385 0.020339 0
0.014832 0.0221787 0
0.00365461 0.0251028 0
0.006054 0.0205672 0
0.014832 0.0221787 0
0.0199778 0.0148416 0
-0.0188485 -0.0493398 0
-0.0413801 -0.0676998 0
-0.00996181 -0.030666 0
-0.0310974 -0.0355654 0
-0.0413801 -0.0676998 0
-0.0685704 -0.0831657 0
-0.0310974 -0.0355654 0
-0.0615264 -0.0484811 0
-0.00996181 -0.030666 0
-0.0310974 -0.0355654 0
0.0075124 -0.0226682 0
-0.00546057 -0.0033231 0
-0.0310974 -0.0355654 0
-0.0615264 -0.0484811 0
-0.00546057 -0.0033231 0
-0.0400848 -0.0053108 0
0.0075124 -0.0226682 0
-0.00546057 -0.0033231 0
0.030157 -0.0126615 0
0.0291572 0.00265187 0
-0.00546057 -0.0033231 0
-0.0400848 -0.0053108 0
0.0291572 0.00265187 0
0.0467755 0.00838256 0
0.030157 -0.0126615 0
0.0291572 0.00265187 0
0.175911 -0.0074771 0
0.180131 -0.00674483 0
0.0291572 0.00265187 0
0.0467755 0.00838256 0
0.180131 -0.00674483 0
0.181693 -0.00447676 0
-0.0685704 -0.0831657 0
-0.083798 -0.0113655 0
-0.0615264 -0.0484811 0
-0.0757109 -0.0107572 0
-0.083798 -0.0113655 0
-0.068636 0.057569 0
-0.0757109 -0.0107572 0
-0.0636462 0.0247084 0
-0.0615264 -0.0484811 0
-0.0757109 -0.0107572 0
-0.0400848 -0.0053108 0
-0.0447904 -0.0310021 0
-0.0757109 -0.0107572 0
-0.0636462 0.0247084 0
-0.0447904 -0.0310021 0
-0.0410622 0.0257214 0
-0.068636 0.057569 0
-0.0465096 0.0492038 0
-0.0636462 0.0247084 0
-0.0499025 0.0400832 0
-0.0465096 0.0492038 0
-0.0428721 0.0413382 0
-0.0499025 0.0400832 0
-0.0333362 0.0269122 0
-0.0636462 0.0247084 0
-0.0499025 0.0400832 0
-0.0410622 0.0257214 0
-0.0438956 0.0266956 0
-0.0499025 0.0400832 0
-0.0333362 0.0269122 0
-0.0438956 0.0266956 0
-0.0235048 -0.0027341 0
-0.0428721 0.0413382 0
-0.038439 0.0273326 0
-0.0333362 0.0269122 0
-0.000983855 -0.00130584 0
-0.038439 0.0273326 0
-0.0128242 0.0119065 0
-0.000983855 -0.00130584 0
0.0137429 -0.0070241 0
-0.0333362 0.0269122 0
-0.000983855 -0.00130584 0
-0.0235048 -0.0027341 0
-0.0240109 -0.00865326 0
-0.000983855 -0.00130584 0
0.0137429 -0.0070241 0
-0.0240109 -0.00865326 0
-0.0300285 -0.00953223 0
0 0 0
0 0 0
-0.00209058 0.00667527 0
-0.0375189 0.0344858 0
0 0 0
0 0 0
-0.0375189 0.0344858 0
-0.0365723 -0.0344414 0
-0.00209058 0.00667527 0
-0.0375189 0.0344858 0
-0.0087152 0.0269342 0
0.0132478 0.0297686 0
-0.0375189 0.0344858 0
-0.0365723 -0.0344414 0
0.0132478 0.0297686 0
0.0143276 -0.0312917 0
-0.0087152 0.0269342 0
0.0132478 0.0297686 0
-0.0110922 0.0368244 0
0.00802722 -0.0270436 0
0.0132478 0.0297686 0
0.0143276 -0.0312917 0
0.00802722 -0.0270436 0
-0.00180746 0.0351068 0
-0.0110922 0.0368244 0
0.00802722 -0.0270436 0
-0.0128242 0.0119065 0
-0.00597228 -0.0306284 0
0.00802722 -0.0270436 0
-0.00180746 0.0351068 0
-0.00597228 -0.0306284 0
-0.0195566 0.0651635 0
-0.0128242 0.0119065 0
-0.00597228 -0.0306284 0
0.0137429 -0.0070241 0
-0.010531 0.00813335 0
-0.00597228 -0.0306284 0
-0.0195566 0.0651635 0
-0.010531 0.00813335 0
-0.0219603 0.0550379 0
0.0137429 -0.0070241 0
-0.010531 0.00813335 0
-0.0300285 -0.00953223 0
-0.012398 0.0182574 0
-0.010531 0.00813335 0
-0.0219603 0.0550379 0
-0.012398 0.0182574 0
0.00845748 0.034081 0
0 0 0
0 0 0
-0.0365723 -0.0344414 0
-0.0167652 0.010263 0
0 0 0
0 0 0
-0.0167652 0.010263 0
-0.0216001 -0.00377266 0
-0.0365723 -0.0344414 0
-0.0167652 0.010263 0
0.0143276 -0.0312917 0
-0.0283858 0.0326907 0
-0.0167652 0.010263 0
-0.0216001 -0.00377266 0
-0.0283858 0.0326907 0
-0.042781 -0.0021342 0
0.0143276 -0.0312917 0
-0.0283858 0.0326907 0
-0.00180746 0.0351068 0
-0.0273582 0.0457663 0
-0.0283858 0.0326907 0
-0.042781 -0.0021342 0
-0.0273582 0.0457663 0
-0.0266549 0.00163985 0
-0.00180746 0.0351068 0
-0.0273582 0.0457663 0
-0.0195566 0.0651635 0
-0.00395603 0.0271727 0
-0.0273582 0.0457663 0
-0.0266549 0.00163985 0
-0.00395603 0.0271727 0
0.0177625 -0.00576933 0
-0.0195566 0.0651635 0
-0.00395603 0.0271727 0
-0.0219603 0.0550379 0
-0.0157807 0.0117616 0
-0.00395603 0.0271727 0
0.0177625 -0.00576933 0
-0.0157807 0.0117616 0
-0.0144921 -0.0170334 0
-0.0219603 0.0550379 0
-0.0157807 0.0117616 0
0.00845748 0.034081 0
0.0190236 0.0127459 0
-0.0157807 0.0117616 0
-0.0144921 -0.0170334 0
0.0190236 0.0127459 0
0.00390379 -0.00201309 0
0 0 0
0 0 0
-0.0216001 -0.00377266 0
-0.0155805 -0.00375729 0
0 0 0
0 0 0
-0.0155805 -0.00375729 0
-0.00332435 -0.0102871 0
-0.0216001 -0.00377266 0
-0.0155805 -0.00375729 0
-0.042781 -0.0021342 0
-0.0407952 -0.0153359 0
-0.0155805 -0.00375729 0
-0.00332435 -0.0102871 0
-0.0407952 -0.0153359 0
-0.0272198 -0.028365 0
-0.042781 -0.0021342 0
-0.0407952 -0.0153359 0
-0.0266549 0.00163985 0
-0.0302154 -0.0175835 0
-0.0407952 -0.0153359 0
-0.0272198 -0.028365 0
-0.0302154 -0.0175835 0
-0.0307521 -0.041314 0
-0.0266549 0.00163985 0
-0.0302154 -0.0175835 0
0.0177625 -0.00576933 0
0.0104991 0.00202949 0
-0.0302154 -0.0175835 0
-0.0307521 -0.041314 0
0.0104991 0.00202949 0
-0.010965 -0.0353626 0
0.0177625 -0.00576933 0
0.0104991 0.00202949 0
-0.0144921 -0.0170334 0
-0.00355297 0.0089953 0
0.0104991 0.00202949 0
-0.010965 -0.0353626 0
-0.00355297 0.0089953 0
-0.000815753 -0.02055 0
-0.0144921 -0.0170334 0
-0.00355297 0.0089953 0
0.00390379 -0.00201309 0
0.00080973 -0.0158758 0
-0.00355297 0.0089953 0
-0.000815753 -0.02055 0
0.00080973 -0.0158758 0
0.00259486 -0.00122261 0
0 0 0
0 0 0
-0.00332435 -0.0102871 0
0.00284578 0.00313067 0
0 0 0
0 0 0
0.00284578 0.00313067 0
0 0 0
-0.00332435 -0.0102871 0
0.00284578 0.00313067 0
-0.0272198 -0.028365 0
-0.0101545 -0.00569918 0
0.00284578 0.00313067 0
0 0 0
-0.0101545 -0.00569918 0
0 0 0
-0.0272198 -0.028365 0
-0.0101545 -0.00569918 0
-0.0307521 -0.041314 0
-0.0130536 -0.0333752 0
-0.0101545 -0.00569918 0
0 0 0
-0.0130536 -0.0333752 0
0 0 0
-0.0307521 -0.041314 0
-0.0130536 -0.0333752 0
-0.010965 -0.0353626 0
-0.0101209 -0.0607666 0
-0.0130536 -0.0333752 0
0 0 0
-0.0101209 -0.0607666 0
0 0 0
-0.010965 -0.0353626 0
-0.0101209 -0.0607666 0
-0.000815753 -0.02055 0
-0.00211007 -0.0752561 0
-0.0101209 -0.0607666 0
0 0 0
-0.00211007 -0.0752561 0
0 0 0
-0.000815753 -0.02055 0
-0.00211007 -0.0752561 0
0.00259486 -0.00122261 0
-0.00574455 -0.0845296 0
-0.00211007 -0.0752561 0
0 0 0
-0.00574455 -0.0845296 0
0 0 0
0.174631 0.00731154 0
0.178768 0.00727954 0
0.178915 0.00672688 0
0.173744 0.0054341 0
0.178768 0.00727954 0
0.133002 0.00322197 0
0.173744 0.0054341 0
0.131773 0.00252057 0
0.178915 0.00672688 0
0.173744 0.0054341 0
0.180538 0.00439335 0
0.170782 0.00353289 0
0.173744 0.0054341 0
0.131773 0.00252057 0
0.170782 0.00353289 0
0.130609 0.00173406 0
0.16889 0.00682653 0
0.107063 0.00588268 0
0.164689 0.00667217 0
0.109601 0.00568812 0
0.107063 0.00588268 0
0.229583 -0.000146986 0
0.109601 0.00568812 0
0.216939 -0.000138231 0
0.164689 0.00667217 0
0.109601 0.00568812 0
0.16053 0.00657909 0
0.111706 0.00520099 0
0.109601 0.00568812 0
0.216939 -0.000138231 0
0.111706 0.00520099 0
0.205398 -0.000126531 0
0.16053 0.00657909 0
0.111706 0.00520099 0
0.15631 0.00622228 0
0.113638 0.00495262 0
0.111706 0.00520099 0
0.205398 -0.000126531 0
0.113638 0.00495262 0
0.194767 -0.00011652 0
0.15631 0.00622228 0
0.113638 0.00495262 0
0.152541 0.00565923 0
0.115327 0.00448175 0
0.113638 0.00495262 0
0.194767 -0.00011652 0
0.115327 0.00448175 0
0.185031 -0.000101613 0
0.152541 0.00565923 0
0.115327 0.00448175 0
0.149224 0.00527909 0
0.116746 0.00425315 0
0.115327 0.00448175 0
0.185031 -0.000101613 0
0.116746 0.00425315 0
0.176209 -8.61485e-05 0
0.149224 0.00527909 0
0.116746 0.00425315 0
0.146219 0.0051132 0
0.117859 0.00385093 0
0.116746 0.00425315 0
0.176209 -8.61485e-05 0
0.117859 0.00385093 0
0.168301 -6.77684e-05 0
0.146219 0.0051132 0
0.117859 0.00385093 0
0.143489 0.00490873 0
0.118626 0.003789 0
0.117859 0.00385093 0
0.168301 -6.77684e-05 0
0.118626 0.003789 0
0.161218 -6.08058e-05 0
0.143489 0.00490873 0
0.118626 0.003789 0
0.141002 0.0047193 0
0.119061 0.00337392 0
0.118626 0.003789 0
0.161218 -6.08058e-05 0
0.119061 0.00337392 0
0.154826 -4.67237e-05 0
0.141002 0.0047193 0
0.119061 0.00337392 0
0.138727 0.00448084 0
0.119164 0.00338773 0
0.119061 0.00337392 0
0.154826 -4.67237e-05 0
0.119164 0.00338773 0
0.149107 -3.275e-05 0
0.138727 0.00448084 0
0.119164 0.00338773 0
0.136564 0.00466337 0
0.119 0.00302542 0
0.119164 0.00338773 0
0.149107 -3.275e-05 0
0.119 0.00302542 0
0.144071 -1.29855e-05 0
0.136564 0.00466337 0
0.119 0.00302542 0
0.134585 0.00399328 0
0.118717 0.00300766 0
0.119 0.00302542 0
0.144071 -1.29855e-05 0
0.118717 0.00300766 0
0.139566 -2.72049e-05 0
0.134585 0.00399328 0
0.118717 0.00300766 0
0.133002 0.00322197 0
0.118486 0.00229295 0
0.118717 0.00300766 0
0.139566 -2.72049e-05 0
0.118486 0.00229295 0