# vtk DataFile Version 3.0
#This file was generated by the deal.II library on 2026/3/26 at 11:12:09
ASCII
DATASET UNSTRUCTURED_GRID

POINTS 1296 double
0 0 0
0.214286 0 0
0 0.25 0
0.214286 0.25 0
0 0.25 0
0.214286 0.25 0
0 0.5 0
0.214286 0.5 0
0 0.5 0
0.214286 0.5 0
0 0.75 0
0.214286 0.75 0
0.214286 0 0
0.428571 0 0
0.214286 0.25 0
0.428571 0.25 0
0.214286 0.25 0
0.428571 0.25 0
0.214286 0.5 0
0.428571 0.5 0
0.214286 0.5 0
0.428571 0.5 0
0.214286 0.75 0
0.428571 0.75 0
0.428571 0 0
0.642857 0 0
0.428571 0.25 0
0.642857 0.25 0
0.428571 0.25 0
0.642857 0.25 0
0.428571 0.5 0
0.642857 0.5 0
0.428571 0.5 0
0.642857 0.5 0
0.428571 0.75 0
0.642857 0.75 0
0.642857 0 0
0.857143 0 0
0.642857 0.25 0
0.857143 0.25 0
0.642857 0.25 0
0.857143 0.25 0
0.642857 0.5 0
0.857143 0.5 0
0.642857 0.5 0
0.857143 0.5 0
0.642857 0.75 0
0.857143 0.75 0
0.857143 0 0
1.07143 0 0
0.857143 0.25 0
1.07143 0.25 0
0.857143 0.25 0
1.07143 0.25 0
0.857143 0.5 0
1.07143 0.5 0
0.857143 0.5 0
1.07143 0.5 0
0.857143 0.75 0
1.07143 0.75 0
1.07143 0 0
1.28571 0 0
1.07143 0.25 0
1.28571 0.25 0
1.07143 0.25 0
1.28571 0.25 0
1.07143 0.5 0
1.28571 0.5 0
1.07143 0.5 0
1.28571 0.5 0
1.07143 0.75 0
1.28571 0.75 0
1.28571 0 0
1.5 0 0
1.28571 0.25 0
1.5 0.25 0
1.28571 0.25 0
1.5 0.25 0
1.28571 0.5 0
1.5 0.5 0
1.28571 0.5 0
1.5 0.5 0
1.28571 0.75 0
1.5 0.75 0
1.28571 0.75 0
1.5 0.75 0
1.28571 1 0
1.5 1 0
1.5 0 0
1.71429 0 0
1.5 0.25 0
1.71429 0.25 0
1.5 0.25 0
1.71429 0.25 0
1.5 0.5 0
1.71429 0.5 0
1.5 0.5 0
1.71429 0.5 0
1.5 0.75 0
1.71429 0.75 0
1.71429 0 0
1.92857 0 0
1.71429 0.25 0
1.92857 0.25 0
1.71429 0.25 0
1.92857 0.25 0
1.71429 0.5 0
1.92857 0.5 0
1.71429 0.5 0
1.92857 0.5 0
1.71429 0.75 0
1.92857 0.75 0
1.92857 0 0
2.14286 0 0
1.92857 0.25 0
2.14286 0.25 0
1.92857 0.25 0
2.14286 0.25 0
1.92857 0.5 0
2.14286 0.5 0
1.92857 0.5 0
2.14286 0.5 0
1.92857 0.75 0
2.14286 0.75 0
2.14286 0 0
2.35714 0 0
2.14286 0.25 0
2.35714 0.25 0
2.14286 0.25 0
2.35714 0.25 0
2.14286 0.5 0
2.35714 0.5 0
2.14286 0.5 0
2.35714 0.5 0
2.14286 0.75 0
2.35714 0.75 0
2.35714 0 0
2.57143 0 0
2.35714 0.25 0
2.57143 0.25 0
2.35714 0.25 0
2.57143 0.25 0
2.35714 0.5 0
2.57143 0.5 0
2.35714 0.5 0
2.57143 0.5 0
2.35714 0.75 0
2.57143 0.75 0
2.57143 0 0
2.78571 0 0
2.57143 0.25 0
2.78571 0.25 0
2.57143 0.25 0
2.78571 0.25 0
2.57143 0.5 0
2.78571 0.5 0
2.57143 0.5 0
2.78571 0.5 0
2.57143 0.75 0
2.78571 0.75 0
2.78571 0 0
3 0 0
2.78571 0.25 0
3 0.25 0
2.78571 0.25 0
3 0.25 0
2.78571 0.5 0
3 0.5 0
2.78571 0.5 0
3 0.5 0
2.78571 0.75 0
3 0.75 0
1.28571 2 0
1.28571 1.75 0
1.5 2 0
1.5 1.75 0
0 1.75 0
0 1.5 0
0.214286 1.75 0
0.214286 1.5 0
0.214286 1.75 0
0.214286 1.5 0
0.428571 1.75 0
0.428571 1.5 0
0.428571 1.75 0
0.428571 1.5 0
0.642857 1.75 0
0.642857 1.5 0
0.642857 1.75 0
0.642857 1.5 0
0.857143 1.75 0
0.857143 1.5 0
0.857143 1.75 0
0.857143 1.5 0
1.07143 1.75 0
1.07143 1.5 0
1.07143 1.75 0
1.07143 1.5 0
1.28571 1.75 0
1.28571 1.5 0
1.28571 1.75 0
1.28571 1.5 0
1.5 1.75 0
1.5 1.5 0
1.5 1.75 0
1.5 1.5 0
1.71429 1.75 0
1.71429 1.5 0
1.71429 1.75 0
1.71429 1.5 0
1.92857 1.75 0
1.92857 1.5 0
1.92857 1.75 0
1.92857 1.5 0
2.14286 1.75 0
2.14286 1.5 0
2.14286 1.75 0
2.14286 1.5 0
2.35714 1.75 0
2.35714 1.5 0
2.35714 1.75 0
2.35714 1.5 0
2.57143 1.75 0
2.57143 1.5 0
2.57143 1.75 0
2.57143 1.5 0
2.78571 1.75 0
2.78571 1.5 0
2.78571 1.75 0
2.78571 1.5 0
3 1.75 0
3 1.5 0
0 1.5 0
0 1.25 0
0.214286 1.5 0
0.214286 1.25 0
0.214286 1.5 0
0.214286 1.25 0
0.428571 1.5 0
0.428571 1.25 0
0.428571 1.5 0
0.428571 1.25 0
0.642857 1.5 0
0.642857 1.25 0
0.642857 1.5 0
0.642857 1.25 0
0.857143 1.5 0
0.857143 1.25 0
0.857143 1.5 0
0.857143 1.25 0
1.07143 1.5 0
1.07143 1.25 0
1.07143 1.5 0
1.07143 1.25 0
1.28571 1.5 0
1.28571 1.25 0
1.28571 1.5 0
1.28571 1.25 0
1.5 1.5 0
1.5 1.25 0
1.5 1.5 0
1.5 1.25 0
1.71429 1.5 0
1.71429 1.25 0
1.71429 1.5 0
1.71429 1.25 0
1.92857 1.5 0
1.92857 1.25 0
1.92857 1.5 0
1.92857 1.25 0
2.14286 1.5 0
2.14286 1.25 0
2.14286 1.5 0
2.14286 1.25 0
2.35714 1.5 0
2.35714 1.25 0
2.35714 1.5 0
2.35714 1.25 0
2.57143 1.5 0
2.57143 1.25 0
2.57143 1.5 0
2.57143 1.25 0
2.78571 1.5 0
2.78571 1.25 0
2.78571 1.5 0
2.78571 1.25 0
3 1.5 0
3 1.25 0
1.28571 1.25 0
1.28571 1 0
1.5 1.25 0
1.5 1 0
0 3 0
0 2.75 0
0.214286 3 0
0.214286 2.75 0
0.214286 3 0
0.214286 2.75 0
0.428571 3 0
0.428571 2.75 0
0.428571 3 0
0.428571 2.75 0
0.642857 3 0
0.642857 2.75 0
0.642857 3 0
0.642857 2.75 0
0.857143 3 0
0.857143 2.75 0
0.857143 3 0
0.857143 2.75 0
1.07143 3 0
1.07143 2.75 0
1.07143 3 0
1.07143 2.75 0
1.28571 3 0
1.28571 2.75 0
1.28571 3 0
1.28571 2.75 0
1.5 3 0
1.5 2.75 0
1.5 3 0
1.5 2.75 0
1.71429 3 0
1.71429 2.75 0
1.71429 3 0
1.71429 2.75 0
1.92857 3 0
1.92857 2.75 0
1.92857 3 0
1.92857 2.75 0
2.14286 3 0
2.14286 2.75 0
2.14286 3 0
2.14286 2.75 0
2.35714 3 0
2.35714 2.75 0
2.35714 3 0
2.35714 2.75 0
2.57143 3 0
2.57143 2.75 0
2.57143 3 0
2.57143 2.75 0
2.78571 3 0
2.78571 2.75 0
2.78571 3 0
2.78571 2.75 0
3 3 0
3 2.75 0
0 2.75 0
0 2.5 0
0.214286 2.75 0
0.214286 2.5 0
0.214286 2.75 0
0.214286 2.5 0
0.428571 2.75 0
0.428571 2.5 0
0.428571 2.75 0
0.428571 2.5 0
0.642857 2.75 0
0.642857 2.5 0
0.642857 2.75 0
0.642857 2.5 0
0.857143 2.75 0
0.857143 2.5 0
0.857143 2.75 0
0.857143 2.5 0
1.07143 2.75 0
1.07143 2.5 0
1.07143 2.75 0
1.07143 2.5 0
1.28571 2.75 0
1.28571 2.5 0
1.28571 2.75 0
1.28571 2.5 0
1.5 2.75 0
1.5 2.5 0
1.5 2.75 0
1.5 2.5 0
1.71429 2.75 0
1.71429 2.5 0
1.71429 2.75 0
1.71429 2.5 0
1.92857 2.75 0
1.92857 2.5 0
1.92857 2.75 0
1.92857 2.5 0
2.14286 2.75 0
2.14286 2.5 0
2.14286 2.75 0
2.14286 2.5 0
2.35714 2.75 0
2.35714 2.5 0
2.35714 2.75 0
2.35714 2.5 0
2.57143 2.75 0
2.57143 2.5 0
2.57143 2.75 0
2.57143 2.5 0
2.78571 2.75 0
2.78571 2.5 0
2.78571 2.75 0
2.78571 2.5 0
3 2.75 0
3 2.5 0
0 2.5 0
0 2.25 0
0.214286 2.5 0
0.214286 2.25 0
0.214286 2.5 0
0.214286 2.25 0
0.428571 2.5 0
0.428571 2.25 0
0.428571 2.5 0
0.428571 2.25 0
0.642857 2.5 0
0.642857 2.25 0
0.642857 2.5 0
0.642857 2.25 0
0.857143 2.5 0
0.857143 2.25 0
0.857143 2.5 0
0.857143 2.25 0
1.07143 2.5 0
1.07143 2.25 0
1.07143 2.5 0
1.07143 2.25 0
1.28571 2.5 0
1.28571 2.25 0
1.28571 2.5 0
1.28571 2.25 0
1.5 2.5 0
1.5 2.25 0
1.5 2.5 0
1.5 2.25 0
1.71429 2.5 0
1.71429 2.25 0
1.71429 2.5 0
1.71429 2.25 0
1.92857 2.5 0
1.92857 2.25 0
1.92857 2.5 0
1.92857 2.25 0
2.14286 2.5 0
2.14286 2.25 0
2.14286 2.5 0
2.14286 2.25 0
2.35714 2.5 0
2.35714 2.25 0
2.35714 2.5 0
2.35714 2.25 0
2.57143 2.5 0
2.57143 2.25 0
2.57143 2.5 0
2.57143 2.25 0
2.78571 2.5 0
2.78571 2.25 0
2.78571 2.5 0
2.78571 2.25 0
3 2.5 0
3 2.25 0
1.28571 2.25 0
1.28571 2 0
1.5 2.25 0
1.5 2 0
0 0.75 0
0.107143 0.75 0
0 0.875 0
0.107143 0.875 0
0.107143 0.75 0
0.214286 0.75 0
0.107143 0.875 0
0.214286 0.875 0
0 0.875 0
0.107143 0.875 0
0 1 0
0.107143 1 0
0.107143 0.875 0
0.214286 0.875 0
0.107143 1 0
0.214286 1 0
0.214286 0.75 0
0.321429 0.75 0
0.214286 0.875 0
0.321429 0.875 0
0.321429 0.75 0
0.428571 0.75 0
0.321429 0.875 0
0.428571 0.875 0
0.214286 0.875 0
0.321429 0.875 0
0.214286 1 0
0.321429 1 0
0.321429 0.875 0
0.428571 0.875 0
0.321429 1 0
0.428571 1 0
0.428571 0.75 0
0.535714 0.75 0
0.428571 0.875 0
0.535714 0.875 0
0.535714 0.75 0
0.642857 0.75 0
0.535714 0.875 0
0.642857 0.875 0
0.428571 0.875 0
0.535714 0.875 0
0.428571 1 0
0.535714 1 0
0.535714 0.875 0
0.642857 0.875 0
0.535714 1 0
0.642857 1 0
0.642857 0.75 0
0.75 0.75 0
0.642857 0.875 0
0.75 0.875 0
0.75 0.75 0
0.857143 0.75 0
0.75 0.875 0
0.857143 0.875 0
0.642857 0.875 0
0.75 0.875 0
0.642857 1 0
0.75 1 0
0.75 0.875 0
0.857143 0.875 0
0.75 1 0
0.857143 1 0
0.857143 0.75 0
0.964286 0.75 0
0.857143 0.875 0
0.964286 0.875 0
0.964286 0.75 0
1.07143 0.75 0
0.964286 0.875 0
1.07143 0.875 0
0.857143 0.875 0
0.964286 0.875 0
0.857143 1 0
0.964286 1 0
0.964286 0.875 0
1.07143 0.875 0
0.964286 1 0
1.07143 1 0
1.07143 0.75 0
1.17857 0.75 0
1.07143 0.875 0
1.17857 0.875 0
1.17857 0.75 0
1.28571 0.75 0
1.17857 0.875 0
1.28571 0.875 0
1.07143 0.875 0
1.17857 0.875 0
1.07143 1 0
1.17857 1 0
1.17857 0.875 0
1.28571 0.875 0
1.17857 1 0
1.28571 1 0
1.5 0.75 0
1.60714 0.75 0
1.5 0.875 0
1.60714 0.875 0
1.60714 0.75 0
1.71429 0.75 0
1.60714 0.875 0
1.71429 0.875 0
1.5 0.875 0
1.60714 0.875 0
1.5 1 0
1.60714 1 0
1.60714 0.875 0
1.71429 0.875 0
1.60714 1 0
1.71429 1 0
1.71429 0.75 0
1.82143 0.75 0
1.71429 0.875 0
1.82143 0.875 0
1.82143 0.75 0
1.92857 0.75 0
1.82143 0.875 0
1.92857 0.875 0
1.71429 0.875 0
1.82143 0.875 0
1.71429 1 0
1.82143 1 0
1.82143 0.875 0
1.92857 0.875 0
1.82143 1 0
1.92857 1 0
1.92857 0.75 0
2.03571 0.75 0
1.92857 0.875 0
2.03571 0.875 0
2.03571 0.75 0
2.14286 0.75 0
2.03571 0.875 0
2.14286 0.875 0
1.92857 0.875 0
2.03571 0.875 0
1.92857 1 0
2.03571 1 0
2.03571 0.875 0
2.14286 0.875 0
2.03571 1 0
2.14286 1 0
2.14286 0.75 0
2.25 0.75 0
2.14286 0.875 0
2.25 0.875 0
2.25 0.75 0
2.35714 0.75 0
2.25 0.875 0
2.35714 0.875 0
2.14286 0.875 0
2.25 0.875 0
2.14286 1 0
2.25 1 0
2.25 0.875 0
2.35714 0.875 0
2.25 1 0
2.35714 1 0
2.35714 0.75 0
2.46429 0.75 0
2.35714 0.875 0
2.46429 0.875 0
2.46429 0.75 0
2.57143 0.75 0
2.46429 0.875 0
2.57143 0.875 0
2.35714 0.875 0
2.46429 0.875 0
2.35714 1 0
2.46429 1 0
2.46429 0.875 0
2.57143 0.875 0
2.46429 1 0
2.57143 1 0
2.57143 0.75 0
2.67857 0.75 0
2.57143 0.875 0
2.67857 0.875 0
2.67857 0.75 0
2.78571 0.75 0
2.67857 0.875 0
2.78571 0.875 0
2.57143 0.875 0
2.67857 0.875 0
2.57143 1 0
2.67857 1 0
2.67857 0.875 0
2.78571 0.875 0
2.67857 1 0
2.78571 1 0
2.78571 0.75 0
2.89286 0.75 0
2.78571 0.875 0
2.89286 0.875 0
2.89286 0.75 0
3 0.75 0
2.89286 0.875 0
3 0.875 0
2.78571 0.875 0
2.89286 0.875 0
2.78571 1 0
2.89286 1 0
2.89286 0.875 0
3 0.875 0
2.89286 1 0
3 1 0
0 2 0
0 1.875 0
0.107143 2 0
0.107143 1.875 0
0 1.875 0
0 1.75 0
0.107143 1.875 0
0.107143 1.75 0
0.107143 2 0
0.107143 1.875 0
0.214286 2 0
0.214286 1.875 0
0.107143 1.875 0
0.107143 1.75 0
0.214286 1.875 0
0.214286 1.75 0
0.214286 2 0
0.214286 1.875 0
0.321429 2 0
0.321429 1.875 0
0.214286 1.875 0
0.214286 1.75 0
0.321429 1.875 0
0.321429 1.75 0
0.321429 2 0
0.321429 1.875 0
0.428571 2 0
0.428571 1.875 0
0.321429 1.875 0
0.321429 1.75 0
[...]
POINT_DATA 1296
VECTORS velocity double
0 0 0
0 0 0
0 0 0
-2.22756e-05 1.09691e-05 0
0 0 0
-2.22756e-05 1.09691e-05 0
0 0 0
-0.000466511 0.000603596 0
0 0 0
-0.000466511 0.000603596 0
0 0 0
-0.000871046 0.00218572 0
0 0 0
0 0 0
-2.22756e-05 1.09691e-05 0
-8.91268e-05 4.29393e-05 0
-2.22756e-05 1.09691e-05 0
-8.91268e-05 4.29393e-05 0
-0.000466511 0.000603596 0
-0.00133749 0.000587039 0
-0.000466511 0.000603596 0
-0.00133749 0.000587039 0
-0.000871046 0.00218572 0
-0.00252097 0.00195623 0
0 0 0
0 0 0
-8.91268e-05 4.29393e-05 0
-0.000151944 1.07662e-05 0
-8.91268e-05 4.29393e-05 0
-0.000151944 1.07662e-05 0
-0.00133749 0.000587039 0
-0.00204219 0.000405267 0
-0.00133749 0.000587039 0
-0.00204219 0.000405267 0
-0.00252097 0.00195623 0
-0.00395461 0.00154157 0
0 0 0
0 0 0
-0.000151944 1.07662e-05 0
-0.000253739 9.01397e-05 0
-0.000151944 1.07662e-05 0
-0.000253739 9.01397e-05 0
-0.00204219 0.000405267 0
-0.00243344 0.000316359 0
-0.00204219 0.000405267 0
-0.00243344 0.000316359 0
-0.00395461 0.00154157 0
-0.0051801 0.00107367 0
0 0 0
0 0 0
-0.000253739 9.01397e-05 0
-0.000644232 0.000352668 0
-0.000253739 9.01397e-05 0
-0.000644232 0.000352668 0
-0.00243344 0.000316359 0
-0.00247681 0.000683341 0
-0.00243344 0.000316359 0
-0.00247681 0.000683341 0
-0.0051801 0.00107367 0
-0.00579524 0.000699534 0
0 0 0
0 0 0
-0.000644232 0.000352668 0
-0.00185501 0.00105359 0
-0.000644232 0.000352668 0
-0.00185501 0.00105359 0
-0.00247681 0.000683341 0
-0.00210947 0.00177524 0
-0.00247681 0.000683341 0
-0.00210947 0.00177524 0
-0.00579524 0.000699534 0
-0.00660802 0.00230585 0
0 0 0
0 0 0
-0.00185501 0.00105359 0
-0.00443926 0.0019443 0
-0.00185501 0.00105359 0
-0.00443926 0.0019443 0
-0.00210947 0.00177524 0
-0.00324227 0.0055846 0
-0.00210947 0.00177524 0
-0.00324227 0.0055846 0
-0.00660802 0.00230585 0
-0.00414579 0.00347522 0
-0.00660802 0.00230585 0
-0.00414579 0.00347522 0
0.0176619 0.00122276 0
0.0193492 -0.000208135 0
0 0 0
0 0 0
-0.00443926 0.0019443 0
-0.0103155 0.00494886 0
-0.00443926 0.0019443 0
-0.0103155 0.00494886 0
-0.00324227 0.0055846 0
-0.00654723 0.0121098 0
-0.00324227 0.0055846 0
-0.00654723 0.0121098 0
-0.00414579 0.00347522 0
0.00217956 0.0108229 0
0 0 0
0 0 0
-0.0103155 0.00494886 0
-0.0207046 0.00716759 0
-0.0103155 0.00494886 0
-0.0207046 0.00716759 0
-0.00654723 0.0121098 0
-0.0109287 0.0171071 0
-0.00654723 0.0121098 0
-0.0109287 0.0171071 0
0.00217956 0.0108229 0
0.0122288 0.0117366 0
0 0 0
0 0 0
-0.0207046 0.00716759 0
-0.0314512 0.00563619 0
-0.0207046 0.00716759 0
-0.0314512 0.00563619 0
-0.0109287 0.0171071 0
-0.0115573 0.009016 0
-0.0109287 0.0171071 0
-0.0115573 0.009016 0
0.0122288 0.0117366 0
0.0170012 0.00976993 0
0 0 0
0 0 0
-0.0314512 0.00563619 0
-0.0347115 -0.0016066 0
-0.0314512 0.00563619 0
-0.0347115 -0.0016066 0
-0.0115573 0.009016 0
-0.00884918 -0.00477935 0
-0.0115573 0.009016 0
-0.00884918 -0.00477935 0
0.0170012 0.00976993 0
0.0155879 -0.00749542 0
0 0 0
0 0 0
-0.0347115 -0.0016066 0
-0.0272142 -0.00679302 0
-0.0347115 -0.0016066 0
-0.0272142 -0.00679302 0
-0.00884918 -0.00477935 0
-0.00923939 -0.0116477 0
-0.00884918 -0.00477935 0
-0.00923939 -0.0116477 0
0.0155879 -0.00749542 0
0.0089586 -0.000219641 0
0 0 0
0 0 0
-0.0272142 -0.00679302 0
-0.0109449 -0.01251 0
-0.0272142 -0.00679302 0
-0.0109449 -0.01251 0
-0.00923939 -0.0116477 0
-0.00583185 -0.0310055 0
-0.00923939 -0.0116477 0
-0.00583185 -0.0310055 0
0.0089586 -0.000219641 0
-0.000291475 -0.0365079 0
0 0 0
0 0 0
-0.0109449 -0.01251 0
0 0 0
-0.0109449 -0.01251 0
0 0 0
-0.00583185 -0.0310055 0
0 0 0
-0.00583185 -0.0310055 0
0 0 0
-0.000291475 -0.0365079 0
0 0 0
0.0176619 -0.00122276 0
0.19242 0.000396166 0
0.0193492 0.000208135 0
0.192036 0.000312547 0
0.194486 0.000417667 0
0.266769 -1.00776e-14 0
0.19408 0.000349679 0
0.266535 -9.8185e-15 0
0.19408 0.000349679 0
0.266535 -9.8185e-15 0
0.19374 0.000330154 0
0.266323 -9.91107e-15 0
0.19374 0.000330154 0
0.266323 -9.91107e-15 0
0.193429 0.000308322 0
0.26614 -9.38736e-15 0
0.193429 0.000308322 0
0.26614 -9.38736e-15 0
0.193153 0.000313095 0
0.265952 -9.77801e-15 0
0.193153 0.000313095 0
0.265952 -9.77801e-15 0
0.192928 0.000319232 0
0.265739 -9.49727e-15 0
0.192928 0.000319232 0
0.265739 -9.49727e-15 0
0.19242 0.000396166 0
0.265685 -9.46305e-15 0
0.19242 0.000396166 0
0.265685 -9.46305e-15 0
0.192036 0.000312547 0
0.265699 -1.06342e-14 0
0.192036 0.000312547 0
0.265699 -1.06342e-14 0
0.191629 0.00016832 0
0.265912 -8.42503e-15 0
0.191629 0.00016832 0
0.265912 -8.42503e-15 0
0.1916 -0.000100218 0
0.266206 -5.68791e-15 0
0.1916 -0.000100218 0
0.266206 -5.68791e-15 0
0.191626 0.000196032 0
0.266359 2.78051e-15 0
0.191626 0.000196032 0
0.266359 2.78051e-15 0
0.191358 0.00133426 0
0.266089 8.51304e-15 0
0.191358 0.00133426 0
0.266089 8.51304e-15 0
0.190455 0.000987222 0
0.264607 1.59351e-14 0
0.190455 0.000987222 0
0.264607 1.59351e-14 0
0.189394 0.0078351 0
0.260852 8.11079e-15 0
0.189394 0.0078351 0
0.260852 8.11079e-15 0
0.1875 0 0
0.25 0 0
0.266769 -1.00776e-14 0
0.194486 -0.000417667 0
0.266535 -9.8185e-15 0
0.19408 -0.000349679 0
0.266535 -9.8185e-15 0
0.19408 -0.000349679 0
0.266323 -9.91107e-15 0
0.19374 -0.000330154 0
0.266323 -9.91107e-15 0
0.19374 -0.000330154 0
0.26614 -9.38736e-15 0
0.193429 -0.000308322 0
0.26614 -9.38736e-15 0
0.193429 -0.000308322 0
0.265952 -9.77801e-15 0
0.193153 -0.000313095 0
0.265952 -9.77801e-15 0
0.193153 -0.000313095 0
0.265739 -9.49727e-15 0
0.192928 -0.000319232 0
0.265739 -9.49727e-15 0
0.192928 -0.000319232 0
0.265685 -9.46305e-15 0
0.19242 -0.000396166 0
0.265685 -9.46305e-15 0
0.19242 -0.000396166 0
0.265699 -1.06342e-14 0
0.192036 -0.000312547 0
0.265699 -1.06342e-14 0
0.192036 -0.000312547 0
0.265912 -8.42503e-15 0
0.191629 -0.00016832 0
0.265912 -8.42503e-15 0
0.191629 -0.00016832 0
0.266206 -5.68791e-15 0
0.1916 0.000100218 0
0.266206 -5.68791e-15 0
0.1916 0.000100218 0
0.266359 2.78051e-15 0
0.191626 -0.000196032 0
0.266359 2.78051e-15 0
0.191626 -0.000196032 0
0.266089 8.51304e-15 0
0.191358 -0.00133426 0
0.266089 8.51304e-15 0
0.191358 -0.00133426 0
0.264607 1.59351e-14 0
0.190455 -0.000987222 0
0.264607 1.59351e-14 0
0.190455 -0.000987222 0
0.260852 8.11079e-15 0
0.189394 -0.0078351 0
0.260852 8.11079e-15 0
0.189394 -0.0078351 0
0.25 0 0
0.1875 0 0
0.19242 -0.000396166 0
0.0176619 0.00122276 0
0.192036 -0.000312547 0
0.0193492 -0.000208135 0
0 0 0
0 0 0
0 0 0
-2.22756e-05 -1.09691e-05 0
0 0 0
-2.22756e-05 -1.09691e-05 0
0 0 0
-8.91268e-05 -4.29393e-05 0
0 0 0
-8.91268e-05 -4.29393e-05 0
0 0 0
-0.000151944 -1.07662e-05 0
0 0 0
-0.000151944 -1.07662e-05 0
0 0 0
-0.000253739 -9.01397e-05 0
0 0 0
-0.000253739 -9.01397e-05 0
0 0 0
-0.000644232 -0.000352668 0
0 0 0
-0.000644232 -0.000352668 0
0 0 0
-0.00185501 -0.00105359 0
0 0 0
-0.00185501 -0.00105359 0
0 0 0
-0.00443926 -0.0019443 0
0 0 0
-0.00443926 -0.0019443 0
0 0 0
-0.0103155 -0.00494886 0
0 0 0
-0.0103155 -0.00494886 0
0 0 0
-0.0207046 -0.00716759 0
0 0 0
-0.0207046 -0.00716759 0
0 0 0
-0.0314512 -0.00563619 0
0 0 0
-0.0314512 -0.00563619 0
0 0 0
-0.0347115 0.0016066 0
0 0 0
-0.0347115 0.0016066 0
0 0 0
-0.0272142 0.00679302 0
0 0 0
-0.0272142 0.00679302 0
0 0 0
-0.0109449 0.01251 0
0 0 0
-0.0109449 0.01251 0
0 0 0
0 0 0
0 0 0
0 0 0
-2.22756e-05 -1.09691e-05 0
-0.000466511 -0.000603596 0
-2.22756e-05 -1.09691e-05 0
-0.000466511 -0.000603596 0
-8.91268e-05 -4.29393e-05 0
-0.00133749 -0.000587039 0
-8.91268e-05 -4.29393e-05 0
-0.00133749 -0.000587039 0
-0.000151944 -1.07662e-05 0
-0.00204219 -0.000405267 0
-0.000151944 -1.07662e-05 0
-0.00204219 -0.000405267 0
-0.000253739 -9.01397e-05 0
-0.00243344 -0.000316359 0
-0.000253739 -9.01397e-05 0
-0.00243344 -0.000316359 0
-0.000644232 -0.000352668 0
-0.00247681 -0.000683341 0
-0.000644232 -0.000352668 0
-0.00247681 -0.000683341 0
-0.00185501 -0.00105359 0
-0.00210947 -0.00177524 0
-0.00185501 -0.00105359 0
-0.00210947 -0.00177524 0
-0.00443926 -0.0019443 0
-0.00324227 -0.0055846 0
-0.00443926 -0.0019443 0
-0.00324227 -0.0055846 0
-0.0103155 -0.00494886 0
-0.00654723 -0.0121098 0
-0.0103155 -0.00494886 0
-0.00654723 -0.0121098 0
-0.0207046 -0.00716759 0
-0.0109287 -0.0171071 0
-0.0207046 -0.00716759 0
-0.0109287 -0.0171071 0
-0.0314512 -0.00563619 0
-0.0115573 -0.009016 0
-0.0314512 -0.00563619 0
-0.0115573 -0.009016 0
-0.0347115 0.0016066 0
-0.00884918 0.00477935 0
-0.0347115 0.0016066 0
-0.00884918 0.00477935 0
-0.0272142 0.00679302 0
-0.00923939 0.0116477 0
-0.0272142 0.00679302 0
-0.00923939 0.0116477 0
-0.0109449 0.01251 0
-0.00583185 0.0310055 0
-0.0109449 0.01251 0
-0.00583185 0.0310055 0
0 0 0
0 0 0
0 0 0
0 0 0
-0.000466511 -0.000603596 0
-0.000871046 -0.00218572 0
-0.000466511 -0.000603596 0
-0.000871046 -0.00218572 0
-0.00133749 -0.000587039 0
-0.00252097 -0.00195623 0
-0.00133749 -0.000587039 0
-0.00252097 -0.00195623 0
-0.00204219 -0.000405267 0
-0.00395461 -0.00154157 0
-0.00204219 -0.000405267 0
-0.00395461 -0.00154157 0
-0.00243344 -0.000316359 0
-0.0051801 -0.00107367 0
-0.00243344 -0.000316359 0
-0.0051801 -0.00107367 0
-0.00247681 -0.000683341 0
-0.00579524 -0.000699534 0
-0.00247681 -0.000683341 0
-0.00579524 -0.000699534 0
-0.00210947 -0.00177524 0
-0.00660802 -0.00230585 0
-0.00210947 -0.00177524 0
-0.00660802 -0.00230585 0
-0.00324227 -0.0055846 0
-0.00414579 -0.00347522 0
-0.00324227 -0.0055846 0
-0.00414579 -0.00347522 0
-0.00654723 -0.0121098 0
0.00217956 -0.0108229 0
-0.00654723 -0.0121098 0
0.00217956 -0.0108229 0
-0.0109287 -0.0171071 0
0.0122288 -0.0117366 0
-0.0109287 -0.0171071 0
0.0122288 -0.0117366 0
-0.0115573 -0.009016 0
0.0170012 -0.00976993 0
-0.0115573 -0.009016 0
0.0170012 -0.00976993 0
-0.00884918 0.00477935 0
0.0155879 0.00749542 0
-0.00884918 0.00477935 0
0.0155879 0.00749542 0
-0.00923939 0.0116477 0
0.0089586 0.000219641 0
-0.00923939 0.0116477 0
0.0089586 0.000219641 0
-0.00583185 0.0310055 0
-0.000291475 0.0365079 0
-0.00583185 0.0310055 0
-0.000291475 0.0365079 0
0 0 0
0 0 0
-0.00660802 -0.00230585 0
0.0176619 -0.00122276 0
-0.00414579 -0.00347522 0
0.0193492 0.000208135 0
0 0 0
-0.00021015 0.00110508 0
0 0 0
-0.00135608 0.00308076 0
-0.00021015 0.00110508 0
-0.000871046 0.00218572 0
-0.00135608 0.00308076 0
-0.00303898 0.00310724 0
0 0 0
-0.00135608 0.00308076 0
0 0 0
0.00232212 0.0022953 0
-0.00135608 0.00308076 0
-0.00303898 0.00310724 0
0.00232212 0.0022953 0
0.00619565 0.00163681 0
-0.000871046 0.00218572 0
-0.00172529 0.00207547 0
-0.00303898 0.00310724 0
-0.0033203 0.00265777 0
-0.00172529 0.00207547 0
-0.00252097 0.00195623 0
-0.0033203 0.00265777 0
-0.0032915 0.00244186 0
-0.00303898 0.00310724 0
-0.0033203 0.00265777 0
0.00619565 0.00163681 0
0.00894184 0.00154391 0
-0.0033203 0.00265777 0
-0.0032915 0.00244186 0
0.00894184 0.00154391 0
0.0111505 0.0011818 0
-0.00252097 0.00195623 0
-0.00326168 0.00175052 0
-0.0032915 0.00244186 0
-0.00307927 0.00207349 0
-0.00326168 0.00175052 0
-0.00395461 0.00154157 0
-0.00307927 0.00207349 0
-0.00295644 0.00206132 0
-0.0032915 0.00244186 0
-0.00307927 0.00207349 0
0.0111505 0.0011818 0
0.0129054 0.00127375 0
-0.00307927 0.00207349 0
-0.00295644 0.00206132 0
0.0129054 0.00127375 0
0.014537 0.000984568 0
-0.00395461 0.00154157 0
-0.00459424 0.00131026 0
-0.00295644 0.00206132 0
-0.00273709 0.00148216 0
-0.00459424 0.00131026 0
-0.0051801 0.00107367 0
-0.00273709 0.00148216 0
-0.00279887 0.00183565 0
-0.00295644 0.00206132 0
-0.00273709 0.00148216 0
0.014537 0.000984568 0
0.0157676 0.00105504 0
-0.00273709 0.00148216 0
-0.00279887 0.00183565 0
0.0157676 0.00105504 0
0.0170629 0.00093231 0
-0.0051801 0.00107367 0
-0.00561145 0.000885255 0
-0.00279887 0.00183565 0
-0.0026425 0.000650018 0
-0.00561145 0.000885255 0
-0.00579524 0.000699534 0
-0.0026425 0.000650018 0
-0.00314809 0.00191743 0
-0.00279887 0.00183565 0
-0.0026425 0.000650018 0
0.0170629 0.00093231 0
0.0177879 0.000675531 0
-0.0026425 0.000650018 0
-0.00314809 0.00191743 0
0.0177879 0.000675531 0
0.0189824 0.00113657 0
-0.00579524 0.000699534 0
-0.00602449 0.0014705 0
-0.00314809 0.00191743 0
-0.00223443 -0.000340772 0
-0.00602449 0.0014705 0
-0.00660802 0.00230585 0
-0.00223443 -0.000340772 0
-0.000117776 0.00250831 0
-0.00314809 0.00191743 0
-0.00223443 -0.000340772 0
0.0189824 0.00113657 0
0.0187753 -0.000252429 0
-0.00223443 -0.000340772 0
-0.000117776 0.00250831 0
0.0187753 -0.000252429 0
0.0176619 0.00122276 0
-0.00414579 0.00347522 0
-0.000924618 0.00701538 0
0.00191538 0.000645047 0
0.00493 0.00236072 0
-0.000924618 0.00701538 0
0.00217956 0.0108229 0
0.00493 0.00236072 0
0.00821068 0.00776835 0
0.00191538 0.000645047 0
0.00493 0.00236072 0
0.0193492 -0.000208135 0
0.0185447 0.000559257 0
0.00493 0.00236072 0
0.00821068 0.00776835 0
0.0185447 0.000559257 0
0.0210085 0.00269447 0
0.00217956 0.0108229 0
0.00618866 0.0115101 0
0.00821068 0.00776835 0
0.0127297 0.00440767 0
0.00618866 0.0115101 0
0.0122288 0.0117366 0
0.0127297 0.00440767 0
0.0157482 0.00809825 0
0.00821068 0.00776835 0
0.0127297 0.00440767 0
0.0210085 0.00269447 0
0.0233753 0.00143267 0
0.0127297 0.00440767 0
0.0157482 0.00809825 0
0.0233753 0.00143267 0
0.0267816 0.00339614 0
0.0122288 0.0117366 0
0.016986 0.0104651 0
0.0157482 0.00809825 0
0.0195131 0.00394193 0
0.016986 0.0104651 0
0.0170012 0.00976993 0
0.0195131 0.00394193 0
0.0249209 0.00984648 0
0.0157482 0.00809825 0
0.0195131 0.00394193 0
0.0267816 0.00339614 0
0.0292691 0.00131356 0
0.0195131 0.00394193 0
0.0249209 0.00984648 0
0.0292691 0.00131356 0
0.0317101 0.00302511 0
0.0170012 0.00976993 0
0.0153859 0.00176303 0
0.0249209 0.00984648 0
0.0286641 -0.000916205 0
0.0153859 0.00176303 0
0.0155879 -0.00749542 0
0.0286641 -0.000916205 0
0.0241322 0.000283567 0
0.0249209 0.00984648 0
0.0286641 -0.000916205 0
0.0317101 0.00302511 0
0.0331344 -0.000109024 0
0.0286641 -0.000916205 0
0.0241322 0.000283567 0
0.0331344 -0.000109024 0
0.0354265 0.00178027 0
0.0155879 -0.00749542 0
0.0145974 -0.00473766 0
0.0241322 0.000283567 0
0.0197377 -0.00637212 0
0.0145974 -0.00473766 0
0.0089586 -0.000219641 0
0.0197377 -0.00637212 0
0.0211236 0.00633511 0
0.0241322 0.000283567 0
0.0197377 -0.00637212 0
0.0354265 0.00178027 0
0.0351565 -0.00237507 0
0.0197377 -0.00637212 0
0.0211236 0.00633511 0
0.0351565 -0.00237507 0
0.035368 5.23465e-05 0
0.0089586 -0.000219641 0
0.00247216 -0.017418 0
0.0211236 0.00633511 0
0.0217791 -0.0174537 0
0.00247216 -0.017418 0
-0.000291475 -0.0365079 0
0.0217791 -0.0174537 0
0.0011533 -0.0089257 0
0.0211236 0.00633511 0
0.0217791 -0.0174537 0
0.035368 5.23465e-05 0
0.0323542 -0.00851853 0
0.0217791 -0.0174537 0
0.0011533 -0.0089257 0
0.0323542 -0.00851853 0
0.0348955 0.00249672 0
-0.000291475 -0.0365079 0
-0.000338053 -0.0207941 0
0.0011533 -0.0089257 0
-0.0111149 -0.0340534 0
-0.000338053 -0.0207941 0
0 0 0
-0.0111149 -0.0340534 0
0 0 0
0.0011533 -0.0089257 0
-0.0111149 -0.0340534 0
0.0348955 0.00249672 0
0.0245566 -0.0185678 0
-0.0111149 -0.0340534 0
0 0 0
0.0245566 -0.0185678 0
0 0 0
0 0 0
0.087754 0.000339561 0
0.00232212 -0.0022953 0
0.0880357 0.000410593 0
0.087754 0.000339561 0
0.194486 0.000417667 0
0.0880357 0.000410593 0
0.194258 0.000378286 0
0.00232212 -0.0022953 0
0.0880357 0.000410593 0
0.00619565 -0.00163681 0
0.088185 0.000424472 0
0.0880357 0.000410593 0
0.194258 0.000378286 0
0.088185 0.000424472 0
0.19408 0.000349679 0
0.00619565 -0.00163681 0
0.088185 0.000424472 0
0.00894184 -0.00154391 0
0.0885309 0.000155102 0
0.088185 0.000424472 0
0.19408 0.000349679 0
0.0885309 0.000155102 0
0.193919 0.000338877 0
0.00894184 -0.00154391 0
0.0885309 0.000155102 0
0.0111505 -0.0011818 0
0.0889584 0.000394628 0
0.0885309 0.000155102 0
0.193919 0.000338877 0
0.0889584 0.000394628 0
0.19374 0.000330154 0
0.0111505 -0.0011818 0
0.0889584 0.000394628 0
0.0129054 -0.00127375 0
0.0894665 5.13016e-05 0
0.0889584 0.000394628 0
0.19374 0.000330154 0
0.0894665 5.13016e-05 0
0.193562 0.000317033 0
0.0129054 -0.00127375 0
0.0894665 5.13016e-05 0
0.014537 -0.000984568 0
0.0899379 0.000442278 0
0.0894665 5.13016e-05 0
0.193562 0.000317033 0
0.0899379 0.000442278 0
0.193429 0.000308322 0
0.014537 -0.000984568 0
0.0899379 0.000442278 0
0.0157676 -0.00105504 0
0.0904846 -4.97819e-05 0
0.0899379 0.000442278 0
0.193429 0.000308322 0
0.0904846 -4.97819e-05 0
0.193303 0.000312277 0
0.0157676 -0.00105504 0
0.0904846 -4.97819e-05 0
0.0170629 -0.00093231 0
0.091019 0.000589681 0
0.0904846 -4.97819e-05 0
0.193303 0.000312277 0
0.091019 0.000589681 0
0.193153 0.000313095 0
0.0170629 -0.00093231 0
0.091019 0.000589681 0
0.0177879 -0.000675531 0
0.0916368 -0.000174822 0
0.091019 0.000589681 0
0.193153 0.000313095 0
0.0916368 -0.000174822 0
0.193005 0.000303052 0
0.0177879 -0.000675531 0
0.0916368 -0.000174822 0
0.0189824 -0.00113657 0
0.0921128 0.000805482 0
0.0916368 -0.000174822 0
0.193005 0.000303052 0
0.0921128 0.000805482 0
0.192928 0.000319232 0
0.0189824 -0.00113657 0
0.0921128 0.000805482 0
0.0187753 0.000252429 0
0.0929485 -0.00038542 0
0.0921128 0.000805482 0
0.192928 0.000319232 0
0.0929485 -0.00038542 0
0.192766 0.000411564 0
0.0187753 0.000252429 0
0.0929485 -0.00038542 0
0.0176619 -0.00122276 0
0.0944329 0.000264849 0
0.0929485 -0.00038542 0
0.192766 0.000411564 0
0.0944329 0.000264849 0
0.19242 0.000396166 0
0.0193492 0.000208135 0
0.0952055 0.000192113 0
0.0185447 -0.000559257 0
0.0956072 -0.000698694 0
0.0952055 0.000192113 0
0.192036 0.000312547 0
0.0956072 -0.000698694 0
0.191989 0.000247868 0
0.0185447 -0.000559257 0
0.0956072 -0.000698694 0
0.0210085 -0.00269447 0
0.0957074 0.000742095 0
0.0956072 -0.000698694 0
0.191989 0.000247868 0
0.0957074 0.000742095 0
0.191629 0.00016832 0
0.0210085 -0.00269447 0
0.0957074 0.000742095 0
0.0233753 -0.00143267 0
0.0960837 -0.00134927 0
0.0957074 0.000742095 0
0.191629 0.00016832 0
0.0960837 -0.00134927 0
0.191288 6.73174e-06 0
0.0233753 -0.00143267 0
0.0960837 -0.00134927 0
0.0267816 -0.00339614 0
0.0957997 0.000620052 0
0.0960837 -0.00134927 0
0.191288 6.73174e-06 0
0.0957997 0.000620052 0
0.1916 -0.000100218 0
0.0267816 -0.00339614 0
0.0957997 0.000620052 0
0.0292691 -0.00131356 0
0.0958586 -0.00187685 0
0.0957997 0.000620052 0
0.1916 -0.000100218 0
0.0958586 -0.00187685 0
0.191971 0.000143253 0
0.0292691 -0.00131356 0
0.0958586 -0.00187685 0
0.0317101 -0.00302511 0
0.0962535 0.00153371 0
0.0958586 -0.00187685 0
0.191971 0.000143253 0
0.0962535 0.00153371 0
0.191626 0.000196032 0
0.0317101 -0.00302511 0
0.0962535 0.00153371 0
0.0331344 0.000109024 0
0.0967616 -0.0016658 0
0.0962535 0.00153371 0
0.191626 0.000196032 0
0.0967616 -0.0016658 0
0.19113 0.000482848 0
0.0331344 0.000109024 0
0.0967616 -0.0016658 0
0.0354265 -0.00178027 0
0.0963871 0.00305713 0
0.0967616 -0.0016658 0
0.19113 0.000482848 0
0.0963871 0.00305713 0
0.191358 0.00133426 0
0.0354265 -0.00178027 0
0.0963871 0.00305713 0
0.0351565 0.00237507 0
0.0969033 -0.0014237 0
0.0963871 0.00305713 0
0.191358 0.00133426 0
0.0969033 -0.0014237 0
0.191399 0.00192557 0
0.0351565 0.00237507 0
0.0969033 -0.0014237 0
0.035368 -5.23465e-05 0
0.0967953 0.0049775 0
0.0969033 -0.0014237 0
0.191399 0.00192557 0
0.0967953 0.0049775 0
0.190455 0.000987222 0
0.035368 -5.23465e-05 0
0.0967953 0.0049775 0
0.0323542 0.00851853 0
0.0958861 -0.000310628 0
0.0967953 0.0049775 0
0.190455 0.000987222 0
0.0958861 -0.000310628 0
0.189544 0.0025753 0
0.0323542 0.00851853 0
0.0958861 -0.000310628 0
0.0348955 -0.00249672 0
0.0956406 0.010353 0
0.0958861 -0.000310628 0
0.189544 0.0025753 0
0.0956406 0.010353 0
0.189394 0.0078351 0
0.0348955 -0.00249672 0
0.0956406 0.010353 0
0.0245566 0.0185678 0
0.101079 0.000834233 0
0.0956406 0.010353 0
0.189394 0.0078351 0
0.101079 0.000834233 0
0.188442 0.00948379 0
0.0245566 0.0185678 0
0.101079 0.000834233 0
0 0 0
0.109375 0 0
0.101079 0.000834233 0
0.188442 0.00948379 0
0.109375 0 0
0.1875 0 0
0.194486 -0.000417667 0
0.087754 -0.000339561 0
0.194258 -0.000378286 0
0.0880357 -0.000410593 0
0.087754 -0.000339561 0
0 0 0
0.0880357 -0.000410593 0
0.00232212 0.0022953 0
0.194258 -0.000378286 0
0.0880357 -0.000410593 0
0.19408 -0.000349679 0
0.088185 -0.000424472 0
0.0880357 -0.000410593 0
0.00232212 0.0022953 0
0.088185 -0.000424472 0