# vtk DataFile Version 3.0
#This file was generated by the deal.II library on 2026/3/26 at 11:15:26
ASCII
DATASET UNSTRUCTURED_GRID

POINTS 3648 double
0 0 0
0.214286 0 0
0 0.25 0
0.214286 0.25 0
0 0.25 0
0.214286 0.25 0
0 0.5 0
0.214286 0.5 0
0.214286 0 0
0.428571 0 0
0.214286 0.25 0
0.428571 0.25 0
0.214286 0.25 0
0.428571 0.25 0
0.214286 0.5 0
0.428571 0.5 0
0.428571 0 0
0.642857 0 0
0.428571 0.25 0
0.642857 0.25 0
0.428571 0.25 0
0.642857 0.25 0
0.428571 0.5 0
0.642857 0.5 0
0.428571 0.5 0
0.642857 0.5 0
0.428571 0.75 0
0.642857 0.75 0
0.642857 0 0
0.857143 0 0
0.642857 0.25 0
0.857143 0.25 0
0.642857 0.25 0
0.857143 0.25 0
0.642857 0.5 0
0.857143 0.5 0
0.642857 0.5 0
0.857143 0.5 0
0.642857 0.75 0
0.857143 0.75 0
0.857143 0 0
1.07143 0 0
0.857143 0.25 0
1.07143 0.25 0
0.857143 0.25 0
1.07143 0.25 0
0.857143 0.5 0
1.07143 0.5 0
0.857143 0.5 0
1.07143 0.5 0
0.857143 0.75 0
1.07143 0.75 0
1.07143 0 0
1.28571 0 0
1.07143 0.25 0
1.28571 0.25 0
1.07143 0.25 0
1.28571 0.25 0
1.07143 0.5 0
1.28571 0.5 0
1.07143 0.5 0
1.28571 0.5 0
1.07143 0.75 0
1.28571 0.75 0
1.28571 0 0
1.5 0 0
1.28571 0.25 0
1.5 0.25 0
1.28571 0.25 0
1.5 0.25 0
1.28571 0.5 0
1.5 0.5 0
1.5 0 0
1.71429 0 0
1.5 0.25 0
1.71429 0.25 0
1.5 0.25 0
1.71429 0.25 0
1.5 0.5 0
1.71429 0.5 0
1.71429 0 0
1.92857 0 0
1.71429 0.25 0
1.92857 0.25 0
1.71429 0.25 0
1.92857 0.25 0
1.71429 0.5 0
1.92857 0.5 0
1.92857 0 0
2.14286 0 0
1.92857 0.25 0
2.14286 0.25 0
1.92857 0.25 0
2.14286 0.25 0
1.92857 0.5 0
2.14286 0.5 0
0 3 0
0 2.75 0
0.214286 3 0
0.214286 2.75 0
0.214286 3 0
0.214286 2.75 0
0.428571 3 0
0.428571 2.75 0
0.428571 3 0
0.428571 2.75 0
0.642857 3 0
0.642857 2.75 0
0.642857 3 0
0.642857 2.75 0
0.857143 3 0
0.857143 2.75 0
0.857143 3 0
0.857143 2.75 0
1.07143 3 0
1.07143 2.75 0
1.07143 3 0
1.07143 2.75 0
1.28571 3 0
1.28571 2.75 0
1.28571 3 0
1.28571 2.75 0
1.5 3 0
1.5 2.75 0
1.5 3 0
1.5 2.75 0
1.71429 3 0
1.71429 2.75 0
1.71429 3 0
1.71429 2.75 0
1.92857 3 0
1.92857 2.75 0
1.92857 3 0
1.92857 2.75 0
2.14286 3 0
2.14286 2.75 0
0 2.75 0
0 2.5 0
0.214286 2.75 0
0.214286 2.5 0
0.214286 2.75 0
0.214286 2.5 0
0.428571 2.75 0
0.428571 2.5 0
0.428571 2.75 0
0.428571 2.5 0
0.642857 2.75 0
0.642857 2.5 0
0.642857 2.75 0
0.642857 2.5 0
0.857143 2.75 0
0.857143 2.5 0
0.857143 2.75 0
0.857143 2.5 0
1.07143 2.75 0
1.07143 2.5 0
1.07143 2.75 0
1.07143 2.5 0
1.28571 2.75 0
1.28571 2.5 0
1.28571 2.75 0
1.28571 2.5 0
1.5 2.75 0
1.5 2.5 0
1.5 2.75 0
1.5 2.5 0
1.71429 2.75 0
1.71429 2.5 0
1.71429 2.75 0
1.71429 2.5 0
1.92857 2.75 0
1.92857 2.5 0
1.92857 2.75 0
1.92857 2.5 0
2.14286 2.75 0
2.14286 2.5 0
0.428571 2.5 0
0.428571 2.25 0
0.642857 2.5 0
0.642857 2.25 0
0.642857 2.5 0
0.642857 2.25 0
0.857143 2.5 0
0.857143 2.25 0
0.857143 2.5 0
0.857143 2.25 0
1.07143 2.5 0
1.07143 2.25 0
1.07143 2.5 0
1.07143 2.25 0
1.28571 2.5 0
1.28571 2.25 0
0.214286 0.75 0
0.321429 0.75 0
0.214286 0.875 0
0.321429 0.875 0
0.321429 0.75 0
0.428571 0.75 0
0.321429 0.875 0
0.428571 0.875 0
0.214286 0.875 0
0.321429 0.875 0
0.214286 1 0
0.321429 1 0
0.321429 0.875 0
0.428571 0.875 0
0.321429 1 0
0.428571 1 0
0.428571 0.75 0
0.535714 0.75 0
0.428571 0.875 0
0.535714 0.875 0
0.535714 0.75 0
0.642857 0.75 0
0.535714 0.875 0
0.642857 0.875 0
0.428571 0.875 0
0.535714 0.875 0
0.428571 1 0
0.535714 1 0
0.535714 0.875 0
0.642857 0.875 0
0.535714 1 0
0.642857 1 0
0.642857 0.75 0
0.75 0.75 0
0.642857 0.875 0
0.75 0.875 0
0.75 0.75 0
0.857143 0.75 0
0.75 0.875 0
0.857143 0.875 0
0.642857 0.875 0
0.75 0.875 0
0.642857 1 0
0.75 1 0
0.75 0.875 0
0.857143 0.875 0
0.75 1 0
0.857143 1 0
0.857143 0.75 0
0.964286 0.75 0
0.857143 0.875 0
0.964286 0.875 0
0.964286 0.75 0
1.07143 0.75 0
0.964286 0.875 0
1.07143 0.875 0
0.857143 0.875 0
0.964286 0.875 0
0.857143 1 0
0.964286 1 0
0.964286 0.875 0
1.07143 0.875 0
0.964286 1 0
1.07143 1 0
1.07143 0.75 0
1.17857 0.75 0
1.07143 0.875 0
1.17857 0.875 0
1.17857 0.75 0
1.28571 0.75 0
1.17857 0.875 0
1.28571 0.875 0
1.07143 0.875 0
1.17857 0.875 0
1.07143 1 0
1.17857 1 0
1.17857 0.875 0
1.28571 0.875 0
1.17857 1 0
1.28571 1 0
0.214286 2 0
0.214286 1.875 0
0.321429 2 0
0.321429 1.875 0
0.214286 1.875 0
0.214286 1.75 0
0.321429 1.875 0
0.321429 1.75 0
0.321429 2 0
0.321429 1.875 0
0.428571 2 0
0.428571 1.875 0
0.321429 1.875 0
0.321429 1.75 0
0.428571 1.875 0
0.428571 1.75 0
0.428571 2 0
0.428571 1.875 0
0.535714 2 0
0.535714 1.875 0
0.428571 1.875 0
0.428571 1.75 0
0.535714 1.875 0
0.535714 1.75 0
0.535714 2 0
0.535714 1.875 0
0.642857 2 0
0.642857 1.875 0
0.535714 1.875 0
0.535714 1.75 0
0.642857 1.875 0
0.642857 1.75 0
0.642857 2 0
0.642857 1.875 0
0.75 2 0
0.75 1.875 0
0.642857 1.875 0
0.642857 1.75 0
0.75 1.875 0
0.75 1.75 0
0.75 2 0
0.75 1.875 0
0.857143 2 0
0.857143 1.875 0
0.75 1.875 0
0.75 1.75 0
0.857143 1.875 0
0.857143 1.75 0
0.857143 2 0
0.857143 1.875 0
0.964286 2 0
0.964286 1.875 0
0.857143 1.875 0
0.857143 1.75 0
0.964286 1.875 0
0.964286 1.75 0
0.964286 2 0
0.964286 1.875 0
1.07143 2 0
1.07143 1.875 0
0.964286 1.875 0
0.964286 1.75 0
1.07143 1.875 0
1.07143 1.75 0
1.07143 2 0
1.07143 1.875 0
1.17857 2 0
1.17857 1.875 0
1.07143 1.875 0
1.07143 1.75 0
1.17857 1.875 0
1.17857 1.75 0
1.17857 2 0
1.17857 1.875 0
1.28571 2 0
1.28571 1.875 0
1.17857 1.875 0
1.17857 1.75 0
1.28571 1.875 0
1.28571 1.75 0
0.214286 1.25 0
0.214286 1.125 0
0.321429 1.25 0
0.321429 1.125 0
0.214286 1.125 0
0.214286 1 0
0.321429 1.125 0
0.321429 1 0
0.321429 1.25 0
0.321429 1.125 0
0.428571 1.25 0
0.428571 1.125 0
0.321429 1.125 0
0.321429 1 0
0.428571 1.125 0
0.428571 1 0
0.428571 1.25 0
0.428571 1.125 0
0.535714 1.25 0
0.535714 1.125 0
0.428571 1.125 0
0.428571 1 0
0.535714 1.125 0
0.535714 1 0
0.535714 1.25 0
0.535714 1.125 0
0.642857 1.25 0
0.642857 1.125 0
0.535714 1.125 0
0.535714 1 0
0.642857 1.125 0
0.642857 1 0
0.642857 1.25 0
0.642857 1.125 0
0.75 1.25 0
0.75 1.125 0
0.642857 1.125 0
0.642857 1 0
0.75 1.125 0
0.75 1 0
0.75 1.25 0
0.75 1.125 0
0.857143 1.25 0
0.857143 1.125 0
0.75 1.125 0
0.75 1 0
0.857143 1.125 0
0.857143 1 0
0.857143 1.25 0
0.857143 1.125 0
0.964286 1.25 0
0.964286 1.125 0
0.857143 1.125 0
0.857143 1 0
0.964286 1.125 0
0.964286 1 0
0.964286 1.25 0
0.964286 1.125 0
1.07143 1.25 0
1.07143 1.125 0
0.964286 1.125 0
0.964286 1 0
1.07143 1.125 0
1.07143 1 0
1.07143 1.25 0
1.07143 1.125 0
1.17857 1.25 0
1.17857 1.125 0
1.07143 1.125 0
1.07143 1 0
1.17857 1.125 0
1.17857 1 0
1.17857 1.25 0
1.17857 1.125 0
1.28571 1.25 0
1.28571 1.125 0
1.17857 1.125 0
1.17857 1 0
1.28571 1.125 0
1.28571 1 0
0.214286 2.25 0
0.214286 2.125 0
0.321429 2.25 0
0.321429 2.125 0
0.214286 2.125 0
0.214286 2 0
0.321429 2.125 0
0.321429 2 0
0.321429 2.25 0
0.321429 2.125 0
0.428571 2.25 0
0.428571 2.125 0
0.321429 2.125 0
0.321429 2 0
0.428571 2.125 0
0.428571 2 0
0.428571 2.25 0
0.428571 2.125 0
0.535714 2.25 0
0.535714 2.125 0
0.428571 2.125 0
0.428571 2 0
0.535714 2.125 0
0.535714 2 0
0.535714 2.25 0
0.535714 2.125 0
0.642857 2.25 0
0.642857 2.125 0
0.535714 2.125 0
0.535714 2 0
0.642857 2.125 0
0.642857 2 0
0.642857 2.25 0
0.642857 2.125 0
0.75 2.25 0
0.75 2.125 0
0.642857 2.125 0
0.642857 2 0
0.75 2.125 0
0.75 2 0
0.75 2.25 0
0.75 2.125 0
0.857143 2.25 0
0.857143 2.125 0
0.75 2.125 0
0.75 2 0
0.857143 2.125 0
0.857143 2 0
0.857143 2.25 0
0.857143 2.125 0
0.964286 2.25 0
0.964286 2.125 0
0.857143 2.125 0
0.857143 2 0
0.964286 2.125 0
0.964286 2 0
0.964286 2.25 0
0.964286 2.125 0
1.07143 2.25 0
1.07143 2.125 0
0.964286 2.125 0
0.964286 2 0
1.07143 2.125 0
1.07143 2 0
1.07143 2.25 0
1.07143 2.125 0
1.17857 2.25 0
1.17857 2.125 0
1.07143 2.125 0
1.07143 2 0
1.17857 2.125 0
1.17857 2 0
1.17857 2.25 0
1.17857 2.125 0
1.28571 2.25 0
1.28571 2.125 0
1.17857 2.125 0
1.17857 2 0
1.28571 2.125 0
1.28571 2 0
0 0.5 0
0.107143 0.5 0
0 0.625 0
0.107143 0.625 0
0.107143 0.5 0
0.214286 0.5 0
0.107143 0.625 0
0.214286 0.625 0
0 0.625 0
0.107143 0.625 0
0 0.75 0
0.107143 0.75 0
0.107143 0.625 0
0.214286 0.625 0
0.107143 0.75 0
0.214286 0.75 0
0.214286 0.5 0
0.321429 0.5 0
0.214286 0.625 0
0.321429 0.625 0
0.321429 0.5 0
0.428571 0.5 0
0.321429 0.625 0
0.428571 0.625 0
0.214286 0.625 0
0.321429 0.625 0
0.214286 0.75 0
0.321429 0.75 0
0.321429 0.625 0
0.428571 0.625 0
0.321429 0.75 0
0.428571 0.75 0
1.28571 0.5 0
1.39286 0.5 0
1.28571 0.625 0
1.39286 0.625 0
1.39286 0.5 0
1.5 0.5 0
1.39286 0.625 0
1.5 0.625 0
1.28571 0.625 0
1.39286 0.625 0
1.28571 0.75 0
1.39286 0.75 0
1.39286 0.625 0
1.5 0.625 0
1.39286 0.75 0
1.5 0.75 0
1.28571 0.75 0
1.39286 0.75 0
1.28571 0.875 0
1.39286 0.875 0
1.39286 0.75 0
1.5 0.75 0
1.39286 0.875 0
1.5 0.875 0
1.28571 0.875 0
1.39286 0.875 0
1.28571 1 0
1.39286 1 0
1.39286 0.875 0
1.5 0.875 0
1.39286 1 0
1.5 1 0
1.5 0.5 0
1.60714 0.5 0
1.5 0.625 0
1.60714 0.625 0
1.60714 0.5 0
1.71429 0.5 0
1.60714 0.625 0
1.71429 0.625 0
1.5 0.625 0
1.60714 0.625 0
1.5 0.75 0
1.60714 0.75 0
1.60714 0.625 0
1.71429 0.625 0
1.60714 0.75 0
1.71429 0.75 0
1.71429 0.5 0
1.82143 0.5 0
1.71429 0.625 0
1.82143 0.625 0
1.82143 0.5 0
1.92857 0.5 0
1.82143 0.625 0
1.92857 0.625 0
1.71429 0.625 0
1.82143 0.625 0
1.71429 0.75 0
1.82143 0.75 0
1.82143 0.625 0
1.92857 0.625 0
1.82143 0.75 0
1.92857 0.75 0
1.92857 0.5 0
2.03571 0.5 0
1.92857 0.625 0
2.03571 0.625 0
2.03571 0.5 0
2.14286 0.5 0
2.03571 0.625 0
2.14286 0.625 0
1.92857 0.625 0
2.03571 0.625 0
1.92857 0.75 0
2.03571 0.75 0
2.03571 0.625 0
2.14286 0.625 0
2.03571 0.75 0
2.14286 0.75 0
2.14286 0 0
2.25 0 0
2.14286 0.125 0
2.25 0.125 0
2.25 0 0
2.35714 0 0
2.25 0.125 0
2.35714 0.125 0
2.14286 0.125 0
2.25 0.125 0
2.14286 0.25 0
2.25 0.25 0
2.25 0.125 0
2.35714 0.125 0
2.25 0.25 0
2.35714 0.25 0
2.14286 0.25 0
2.25 0.25 0
2.14286 0.375 0
2.25 0.375 0
2.25 0.25 0
2.35714 0.25 0
2.25 0.375 0
2.35714 0.375 0
2.14286 0.375 0
2.25 0.375 0
2.14286 0.5 0
2.25 0.5 0
2.25 0.375 0
2.35714 0.375 0
2.25 0.5 0
2.35714 0.5 0
2.14286 0.5 0
2.25 0.5 0
2.14286 0.625 0
2.25 0.625 0
2.25 0.5 0
2.35714 0.5 0
2.25 0.625 0
2.35714 0.625 0
2.14286 0.625 0
2.25 0.625 0
2.14286 0.75 0
2.25 0.75 0
2.25 0.625 0
2.35714 0.625 0
2.25 0.75 0
2.35714 0.75 0
2.35714 0 0
2.46429 0 0
[...]
POINT_DATA 3648
VECTORS velocity double
0 0 0
0 0 0
0 0 0
-0.0113356 0.0127707 0
0 0 0
-0.0113356 0.0127707 0
0 0 0
-0.0016606 0.0281347 0
0 0 0
0 0 0
-0.0113356 0.0127707 0
-0.0342551 0.0137416 0
-0.0113356 0.0127707 0
-0.0342551 0.0137416 0
-0.0016606 0.0281347 0
-0.00212744 0.0260723 0
0 0 0
0 0 0
-0.0342551 0.0137416 0
-0.0532521 0.00880871 0
-0.0342551 0.0137416 0
-0.0532521 0.00880871 0
-0.00212744 0.0260723 0
-0.00312952 0.0198994 0
-0.00212744 0.0260723 0
-0.00312952 0.0198994 0
0.0208238 0.0166494 0
0.0367309 0.0124302 0
0 0 0
0 0 0
-0.0532521 0.00880871 0
-0.0603279 -0.000147339 0
-0.0532521 0.00880871 0
-0.0603279 -0.000147339 0
-0.00312952 0.0198994 0
0.00258648 -0.0106721 0
-0.00312952 0.0198994 0
0.00258648 -0.0106721 0
0.0367309 0.0124302 0
0.0365618 -0.00958286 0
0 0 0
0 0 0
-0.0603279 -0.000147339 0
-0.0500124 -0.0114842 0
-0.0603279 -0.000147339 0
-0.0500124 -0.0114842 0
0.00258648 -0.0106721 0
0.00648994 -0.0174358 0
0.00258648 -0.0106721 0
0.00648994 -0.0174358 0
0.0365618 -0.00958286 0
0.0196215 -0.00243551 0
0 0 0
0 0 0
-0.0500124 -0.0114842 0
-0.00948142 -0.0379776 0
-0.0500124 -0.0114842 0
-0.00948142 -0.0379776 0
0.00648994 -0.0174358 0
-0.0198753 -0.0486541 0
0.00648994 -0.0174358 0
-0.0198753 -0.0486541 0
0.0196215 -0.00243551 0
0.00942168 -0.0215441 0
0 0 0
0 0 0
-0.00948142 -0.0379776 0
0.0701335 -0.0561006 0
-0.00948142 -0.0379776 0
0.0701335 -0.0561006 0
-0.0198753 -0.0486541 0
-0.066636 -0.0819885 0
0 0 0
0 0 0
0.0701335 -0.0561006 0
0.0797505 0.0451084 0
0.0701335 -0.0561006 0
0.0797505 0.0451084 0
-0.066636 -0.0819885 0
-0.065564 0.0564218 0
0 0 0
0 0 0
0.0797505 0.0451084 0
0.0270074 0.0161267 0
0.0797505 0.0451084 0
0.0270074 0.0161267 0
-0.065564 0.0564218 0
-0.0424003 0.0399846 0
0 0 0
0 0 0
0.0270074 0.0161267 0
-0.0114147 0.0274861 0
0.0270074 0.0161267 0
-0.0114147 0.0274861 0
-0.0424003 0.0399846 0
-0.0112142 0.0116313 0
0 0 0
0 0 0
0 0 0
-0.0115301 -0.0129902 0
0 0 0
-0.0115301 -0.0129902 0
0 0 0
-0.0349291 -0.0140769 0
0 0 0
-0.0349291 -0.0140769 0
0 0 0
-0.054175 -0.00880265 0
0 0 0
-0.054175 -0.00880265 0
0 0 0
-0.0609956 0.00040806 0
0 0 0
-0.0609956 0.00040806 0
0 0 0
-0.050248 0.0117096 0
0 0 0
-0.050248 0.0117096 0
0 0 0
-0.00877 0.0389272 0
0 0 0
-0.00877 0.0389272 0
0 0 0
0.070557 0.0547078 0
0 0 0
0.070557 0.0547078 0
0 0 0
0.0792883 -0.0446867 0
0 0 0
0.0792883 -0.0446867 0
0 0 0
0.0267296 -0.016395 0
0 0 0
0.0267296 -0.016395 0
0 0 0
-0.0118124 -0.0273119 0
0 0 0
0 0 0
-0.0115301 -0.0129902 0
-0.00180266 -0.0287431 0
-0.0115301 -0.0129902 0
-0.00180266 -0.0287431 0
-0.0349291 -0.0140769 0
-0.00227604 -0.0265713 0
-0.0349291 -0.0140769 0
-0.00227604 -0.0265713 0
-0.054175 -0.00880265 0
-0.00331294 -0.0200561 0
-0.054175 -0.00880265 0
-0.00331294 -0.0200561 0
-0.0609956 0.00040806 0
0.00250321 0.0115754 0
-0.0609956 0.00040806 0
0.00250321 0.0115754 0
-0.050248 0.0117096 0
0.00667898 0.017799 0
-0.050248 0.0117096 0
0.00667898 0.017799 0
-0.00877 0.0389272 0
-0.020745 0.0493597 0
-0.00877 0.0389272 0
-0.020745 0.0493597 0
0.070557 0.0547078 0
-0.0663616 0.0817752 0
0.070557 0.0547078 0
-0.0663616 0.0817752 0
0.0792883 -0.0446867 0
-0.0647267 -0.0572257 0
0.0792883 -0.0446867 0
-0.0647267 -0.0572257 0
0.0267296 -0.016395 0
-0.0421801 -0.039706 0
0.0267296 -0.016395 0
-0.0421801 -0.039706 0
-0.0118124 -0.0273119 0
-0.0110162 -0.0120966 0
-0.00227604 -0.0265713 0
0.0212013 -0.0170025 0
-0.00331294 -0.0200561 0
0.0373905 -0.0124311 0
-0.00331294 -0.0200561 0
0.0373905 -0.0124311 0
0.00250321 0.0115754 0
0.037024 0.0102298 0
0.00250321 0.0115754 0
0.037024 0.0102298 0
0.00667898 0.017799 0
0.0192903 0.00243078 0
0.00667898 0.017799 0
0.0192903 0.00243078 0
-0.020745 0.0493597 0
0.00952024 0.021958 0
0.00639797 0.0209414 0
0.015091 0.0226244 0
0.00324701 0.0118106 0
0.0103013 0.013231 0
0.015091 0.0226244 0
0.0208238 0.0166494 0
0.0103013 0.013231 0
0.0192474 0.00909609 0
0.00324701 0.0118106 0
0.0103013 0.013231 0
0.0526456 -0.00349059 0
0.0750502 -0.00512351 0
0.0103013 0.013231 0
0.0192474 0.00909609 0
0.0750502 -0.00512351 0
0.0941983 -0.00507305 0
0.0208238 0.0166494 0
0.0282717 0.0140878 0
0.0192474 0.00909609 0
0.0251215 0.00635159 0
0.0282717 0.0140878 0
0.0367309 0.0124302 0
0.0251215 0.00635159 0
0.0303828 0.00450509 0
0.0192474 0.00909609 0
0.0251215 0.00635159 0
0.0941983 -0.00507305 0
0.110751 -0.00586184 0
0.0251215 0.00635159 0
0.0303828 0.00450509 0
0.110751 -0.00586184 0
0.124874 -0.00647468 0
0.0367309 0.0124302 0
0.0411292 0.00225256 0
0.0303828 0.00450509 0
0.0342431 0.00106446 0
0.0411292 0.00225256 0
0.0365618 -0.00958286 0
0.0342431 0.00106446 0
0.0343582 -0.00253563 0
0.0303828 0.00450509 0
0.0342431 0.00106446 0
0.124874 -0.00647468 0
0.137206 -0.00760034 0
0.0342431 0.00106446 0
0.0343582 -0.00253563 0
0.137206 -0.00760034 0
0.148277 -0.00776707 0
0.0365618 -0.00958286 0
0.0278507 -0.00702044 0
0.0343582 -0.00253563 0
0.0335461 -0.00254576 0
0.0278507 -0.00702044 0
0.0196215 -0.00243551 0
0.0335461 -0.00254576 0
0.0369475 -0.00100679 0
0.0343582 -0.00253563 0
0.0335461 -0.00254576 0
0.148277 -0.00776707 0
0.158147 -0.00887887 0
0.0335461 -0.00254576 0
0.0369475 -0.00100679 0
0.158147 -0.00887887 0
0.166519 -0.00944193 0
0.0196215 -0.00243551 0
0.0130065 -0.0104372 0
0.0369475 -0.00100679 0
0.0397449 -0.00707416 0
0.0130065 -0.0104372 0
0.00942168 -0.0215441 0
0.0397449 -0.00707416 0
0.0331987 -0.0125681 0
0.0369475 -0.00100679 0
0.0397449 -0.00707416 0
0.166519 -0.00944193 0
0.173461 -0.0108062 0
0.0397449 -0.00707416 0
0.0331987 -0.0125681 0
0.173461 -0.0108062 0
0.179422 -0.00847219 0
0.0523158 0.00339684 0
0.24228 0.0132951 0
0.0745424 0.00497377 0
0.235157 0.0122818 0
0.24228 0.0132951 0
0.157928 0.00658798 0
0.235157 0.0122818 0
0.153841 0.00621891 0
0.0745424 0.00497377 0
0.235157 0.0122818 0
0.0935628 0.00488419 0
0.228504 0.0111869 0
0.235157 0.0122818 0
0.153841 0.00621891 0
0.228504 0.0111869 0
0.150217 0.0056611 0
0.0935628 0.00488419 0
0.228504 0.0111869 0
0.110023 0.00568162 0
0.222213 0.010189 0
0.228504 0.0111869 0
0.150217 0.0056611 0
0.222213 0.010189 0
0.147046 0.00528681 0
0.110023 0.00568162 0
0.222213 0.010189 0
0.12409 0.00631394 0
0.216171 0.00995358 0
0.222213 0.010189 0
0.147046 0.00528681 0
0.216171 0.00995358 0
0.144179 0.00514966 0
0.12409 0.00631394 0
0.216171 0.00995358 0
0.136382 0.00750023 0
0.210132 0.00958116 0
0.216171 0.00995358 0
0.144179 0.00514966 0
0.210132 0.00958116 0
0.141563 0.00499045 0
0.136382 0.00750023 0
0.210132 0.00958116 0
0.147435 0.00765795 0
0.203891 0.00958764 0
0.210132 0.00958116 0
0.141563 0.00499045 0
0.203891 0.00958764 0
0.13916 0.00485157 0
0.147435 0.00765795 0
0.203891 0.00958764 0
0.157321 0.00879453 0
0.197402 0.00926089 0
0.203891 0.00958764 0
0.13916 0.00485157 0
0.197402 0.00926089 0
0.136941 0.00467161 0
0.157321 0.00879453 0
0.197402 0.00926089 0
0.165716 0.00937399 0
0.190817 0.00971833 0
0.197402 0.00926089 0
0.136941 0.00467161 0
0.190817 0.00971833 0
0.134823 0.00487903 0
0.165716 0.00937399 0
0.190817 0.00971833 0
0.17268 0.0107881 0
0.184059 0.00912141 0
0.190817 0.00971833 0
0.134823 0.00487903 0
0.184059 0.00912141 0
0.132885 0.00424715 0
0.17268 0.0107881 0
0.184059 0.00912141 0
0.178703 0.0083708 0
0.177238 0.00792584 0
0.184059 0.00912141 0
0.132885 0.00424715 0
0.177238 0.00792584 0
0.13133 0.00348766 0
0.156883 -0.00666097 0
0.241565 -0.0134632 0
0.152704 -0.00629108 0
0.234359 -0.0124629 0
0.241565 -0.0134632 0
0.0526456 -0.00349059 0
0.234359 -0.0124629 0
0.0750502 -0.00512351 0
0.152704 -0.00629108 0
0.234359 -0.0124629 0
0.148998 -0.00573099 0
0.227603 -0.0113599 0
0.234359 -0.0124629 0
0.0750502 -0.00512351 0
0.227603 -0.0113599 0
0.0941983 -0.00507305 0
0.148998 -0.00573099 0
0.227603 -0.0113599 0
0.145763 -0.00533926 0
0.2212 -0.0103431 0
0.227603 -0.0113599 0
0.0941983 -0.00507305 0
0.2212 -0.0103431 0
0.110751 -0.00586184 0
0.145763 -0.00533926 0
0.2212 -0.0103431 0
0.14285 -0.00518738 0
0.215056 -0.0100614 0
0.2212 -0.0103431 0
0.110751 -0.00586184 0
0.215056 -0.0100614 0
0.124874 -0.00647468 0
0.14285 -0.00518738 0
0.215056 -0.0100614 0
0.140208 -0.00500965 0
0.208929 -0.00965919 0
0.215056 -0.0100614 0
0.124874 -0.00647468 0
0.208929 -0.00965919 0
0.137206 -0.00760034 0
0.140208 -0.00500965 0
0.208929 -0.00965919 0
0.137794 -0.00486833 0
0.202616 -0.00963789 0
0.208929 -0.00965919 0
0.137206 -0.00760034 0
0.202616 -0.00963789 0
0.148277 -0.00776707 0
0.137794 -0.00486833 0
0.202616 -0.00963789 0
0.135575 -0.00466439 0
0.196067 -0.00929431 0
0.202616 -0.00963789 0
0.148277 -0.00776707 0
0.196067 -0.00929431 0
0.158147 -0.00887887 0
0.135575 -0.00466439 0
0.196067 -0.00929431 0
0.133465 -0.00486161 0
0.189426 -0.0097208 0
0.196067 -0.00929431 0
0.158147 -0.00887887 0
0.189426 -0.0097208 0
0.166519 -0.00944193 0
0.133465 -0.00486161 0
0.189426 -0.0097208 0
0.131541 -0.00423073 0
0.182619 -0.00912235 0
0.189426 -0.0097208 0
0.166519 -0.00944193 0
0.182619 -0.00912235 0
0.173461 -0.0108062 0
0.131541 -0.00423073 0
0.182619 -0.00912235 0
0.129996 -0.00349226 0
0.175771 -0.00793834 0
0.182619 -0.00912235 0
0.173461 -0.0108062 0
0.175771 -0.00793834 0
0.179422 -0.00847219 0
0.00667849 -0.0214891 0
0.00358732 -0.0120533 0
0.0154472 -0.0230034 0
0.010992 -0.0134256 0
0.00358732 -0.0120533 0
0.0523158 0.00339684 0
0.010992 -0.0134256 0
0.0745424 0.00497377 0
0.0154472 -0.0230034 0
0.010992 -0.0134256 0
0.0212013 -0.0170025 0
0.0201656 -0.0093473 0
0.010992 -0.0134256 0
0.0745424 0.00497377 0
0.0201656 -0.0093473 0
0.0935628 0.00488419 0
0.0212013 -0.0170025 0
0.0201656 -0.0093473 0
0.0287046 -0.0142475 0
0.0261256 -0.00644946 0
0.0201656 -0.0093473 0
0.0935628 0.00488419 0
0.0261256 -0.00644946 0
0.110023 0.00568162 0
0.0287046 -0.0142475 0
0.0261256 -0.00644946 0
0.0373905 -0.0124311 0
0.031229 -0.0044851 0
0.0261256 -0.00644946 0
0.110023 0.00568162 0
0.031229 -0.0044851 0
0.12409 0.00631394 0
0.0373905 -0.0124311 0
0.031229 -0.0044851 0
0.0418979 -0.00197929 0
0.034836 -0.000981647 0
0.031229 -0.0044851 0
0.12409 0.00631394 0
0.034836 -0.000981647 0
0.136382 0.00750023 0
0.0418979 -0.00197929 0
0.034836 -0.000981647 0
0.037024 0.0102298 0
0.034644 0.00264729 0
0.034836 -0.000981647 0
0.136382 0.00750023 0
0.034644 0.00264729 0
0.147435 0.00765795 0
0.037024 0.0102298 0
0.034644 0.00264729 0
0.0278574 0.00741582 0
0.0335262 0.00258988 0
0.034644 0.00264729 0
0.147435 0.00765795 0
0.0335262 0.00258988 0
0.157321 0.00879453 0
0.0278574 0.00741582 0
0.0335262 0.00258988 0
0.0192903 0.00243078 0
0.036853 0.000870238 0
0.0335262 0.00258988 0
0.157321 0.00879453 0
0.036853 0.000870238 0
0.165716 0.00937399 0
0.0192903 0.00243078 0
0.036853 0.000870238 0
0.0126394 0.0105616 0
0.0395807 0.00718559 0
0.036853 0.000870238 0
0.165716 0.00937399 0
0.0395807 0.00718559 0
0.17268 0.0107881 0
0.0126394 0.0105616 0
0.0395807 0.00718559 0
0.00952024 0.021958 0
0.0325111 0.0128872 0
0.0395807 0.00718559 0
0.17268 0.0107881 0
0.0325111 0.0128872 0
0.178703 0.0083708 0
0 0 0
-0.000373737 0.0144029 0
0 0 0
0.00111709 0.0137637 0
-0.000373737 0.0144029 0
-0.0016606 0.0281347 0
0.00111709 0.0137637 0
0.00259551 0.0287074 0
0 0 0
0.00111709 0.0137637 0
0 0 0
5.66576e-05 0.0126464 0
0.00111709 0.0137637 0
0.00259551 0.0287074 0
5.66576e-05 0.0126464 0
0.00639797 0.0209414 0
-0.0016606 0.0281347 0
-0.00264972 0.0270533 0
0.00259551 0.0287074 0
0.00395178 0.0262805 0
-0.00264972 0.0270533 0
-0.00212744 0.0260723 0
0.00395178 0.0262805 0
0.00687969 0.0230131 0
0.00259551 0.0287074 0
0.00395178 0.0262805 0
0.00639797 0.0209414 0
0.015091 0.0226244 0
0.00395178 0.0262805 0
0.00687969 0.0230131 0
0.015091 0.0226244 0
0.0208238 0.0166494 0
-0.0198753 -0.0486541 0
-0.0420561 -0.0668908 0
-0.00844628 -0.0294577 0
-0.0287362 -0.0366162 0
-0.0420561 -0.0668908 0
-0.066636 -0.0819885 0
-0.0287362 -0.0366162 0
-0.0593098 -0.0482769 0
-0.00844628 -0.0294577 0
-0.0287362 -0.0366162 0
0.00942168 -0.0215441 0
-0.00200955 -0.00711825 0
-0.0287362 -0.0366162 0
-0.0593098 -0.0482769 0
-0.00200955 -0.00711825 0
-0.03501 -0.00403361 0
0.00942168 -0.0215441 0
-0.00200955 -0.00711825 0
0.0331987 -0.0125681 0
0.0308145 -0.000291901 0
-0.00200955 -0.00711825 0
-0.03501 -0.00403361 0
0.0308145 -0.000291901 0
0.0470417 0.00853346 0
0.0331987 -0.0125681 0
0.0308145 -0.000291901 0
0.179422 -0.00847219 0
0.184056 -0.00753506 0
0.0308145 -0.000291901 0
0.0470417 0.00853346 0
0.184056 -0.00753506 0
0.185906 -0.00519784 0
-0.066636 -0.0819885 0
-0.0796986 -0.0110089 0
-0.0593098 -0.0482769 0
-0.0733027 -0.0120554 0
-0.0796986 -0.0110089 0
-0.065564 0.0564218 0
-0.0733027 -0.0120554 0
-0.0603673 0.0254197 0
-0.0593098 -0.0482769 0
-0.0733027 -0.0120554 0
-0.03501 -0.00403361 0
-0.0418718 -0.0311354 0
-0.0733027 -0.0120554 0
-0.0603673 0.0254197 0
-0.0418718 -0.0311354 0
-0.0369656 0.0230533 0
-0.065564 0.0564218 0
-0.0453944 0.0477287 0
-0.0603673 0.0254197 0
-0.0465686 0.0390399 0
-0.0453944 0.0477287 0
-0.0424003 0.0399846 0
-0.0465686 0.0390399 0
-0.0326123 0.028751 0
-0.0603673 0.0254197 0
-0.0465686 0.0390399 0
-0.0369656 0.0230533 0
-0.0400546 0.0293096 0
-0.0465686 0.0390399 0
-0.0326123 0.028751 0
-0.0400546 0.0293096 0
-0.0209796 -3.98782e-06 0
-0.0424003 0.0399846 0
-0.0376482 0.0266685 0
-0.0326123 0.028751 0
-0.00172423 -0.00372337 0
-0.0376482 0.0266685 0
-0.0112142 0.0116313 0
-0.00172423 -0.00372337 0
0.0129065 -0.00638979 0
-0.0326123 0.028751 0
-0.00172423 -0.00372337 0
-0.0209796 -3.98782e-06 0
-0.0221775 -0.00926983 0
-0.00172423 -0.00372337 0
0.0129065 -0.00638979 0
-0.0221775 -0.00926983 0
-0.0298213 -0.00872382 0
0 0 0
0 0 0
-0.00360674 0.00682468 0
-0.0384921 0.0337544 0
0 0 0
0 0 0
-0.0384921 0.0337544 0
-0.0380025 -0.0331662 0
-0.00360674 0.00682468 0
-0.0384921 0.0337544 0
-0.0114147 0.0274861 0
0.0116268 0.0268891 0
-0.0384921 0.0337544 0
-0.0380025 -0.0331662 0
0.0116268 0.0268891 0
0.0134494 -0.0282596 0
-0.0114147 0.0274861 0
0.0116268 0.0268891 0
-0.0117703 0.0373931 0
0.00660487 -0.0301893 0
0.0116268 0.0268891 0
0.0134494 -0.0282596 0
0.00660487 -0.0301893 0
-0.00441031 0.0387575 0
-0.0117703 0.0373931 0
0.00660487 -0.0301893 0
-0.0112142 0.0116313 0
-0.00603146 -0.0300403 0
0.00660487 -0.0301893 0
-0.00441031 0.0387575 0
-0.00603146 -0.0300403 0
-0.0205774 0.0675395 0
-0.0112142 0.0116313 0
-0.00603146 -0.0300403 0
0.0129065 -0.00638979 0
-0.0105203 0.00885341 0
-0.00603146 -0.0300403 0
-0.0205774 0.0675395 0
-0.0105203 0.00885341 0
-0.0197879 0.0559174 0
0.0129065 -0.00638979 0
-0.0105203 0.00885341 0
-0.0298213 -0.00872382 0
-0.0107797 0.0161935 0
-0.0105203 0.00885341 0
-0.0197879 0.0559174 0
-0.0107797 0.0161935 0
0.0108554 0.0343309 0
0 0 0
0 0 0
-0.0380025 -0.0331662 0
-0.0195609 0.0105334 0
0 0 0
0 0 0
-0.0195609 0.0105334 0
-0.0244425 -0.00391846 0
-0.0380025 -0.0331662 0
-0.0195609 0.0105334 0
0.0134494 -0.0282596 0
-0.0303137 0.0339871 0
-0.0195609 0.0105334 0
-0.0244425 -0.00391846 0
-0.0303137 0.0339871 0
-0.0448844 -0.00297539 0
0.0134494 -0.0282596 0
-0.0303137 0.0339871 0
-0.00441031 0.0387575 0
-0.0284659 0.0459954 0
-0.0303137 0.0339871 0
-0.0448844 -0.00297539 0
-0.0284659 0.0459954 0
-0.0266189 0.000710778 0
-0.00441031 0.0387575 0
-0.0284659 0.0459954 0
-0.0205774 0.0675395 0
-0.00314713 0.0248646 0
-0.0284659 0.0459954 0
-0.0266189 0.000710778 0
-0.00314713 0.0248646 0
0.0174612 -0.00428379 0
-0.0205774 0.0675395 0
-0.00314713 0.0248646 0
-0.0197879 0.0559174 0
-0.0160109 0.0116534 0
-0.00314713 0.0248646 0
0.0174612 -0.00428379 0
-0.0160109 0.0116534 0
-0.0164592 -0.0144351 0
-0.0197879 0.0559174 0
-0.0160109 0.0116534 0
0.0108554 0.0343309 0
0.0222991 0.015068 0
-0.0160109 0.0116534 0
-0.0164592 -0.0144351 0
0.0222991 0.015068 0
0.00844553 -0.00129531 0
0 0 0
0 0 0
-0.0244425 -0.00391846 0
-0.017982 -0.00421985 0
0 0 0
0 0 0
-0.017982 -0.00421985 0
-0.00458142 -0.0111134 0
-0.0244425 -0.00391846 0
-0.017982 -0.00421985 0
-0.0448844 -0.00297539 0
-0.0426336 -0.0160492 0
-0.017982 -0.00421985 0
-0.00458142 -0.0111134 0
-0.0426336 -0.0160492 0
-0.0290713 -0.0301706 0
-0.0448844 -0.00297539 0
-0.0426336 -0.0160492 0
-0.0266189 0.000710778 0
-0.0303269 -0.0184057 0
-0.0426336 -0.0160492 0
-0.0290713 -0.0301706 0
-0.0303269 -0.0184057 0
-0.0308568 -0.0429367 0
-0.0266189 0.000710778 0
-0.0303269 -0.0184057 0
0.0174612 -0.00428379 0
0.00933355 -6.47945e-05 0
-0.0303269 -0.0184057 0
-0.0308568 -0.0429367 0
0.00933355 -6.47945e-05 0
-0.0108944 -0.0371107 0
0.0174612 -0.00428379 0
0.00933355 -6.47945e-05 0
-0.0164592 -0.0144351 0
-0.00401698 0.00504747 0
0.00933355 -6.47945e-05 0
-0.0108944 -0.0371107 0
-0.00401698 0.00504747 0
-0.000473644 -0.0227553 0
-0.0164592 -0.0144351 0
-0.00401698 0.00504747 0
0.00844553 -0.00129531 0
0.0036114 -0.0176847 0
-0.00401698 0.00504747 0
-0.000473644 -0.0227553 0
0.0036114 -0.0176847 0
0.00339375 -0.00411156 0
0 0 0
0 0 0
-0.00458142 -0.0111134 0
0.00254815 0.00279981 0
0 0 0
0 0 0
0.00254815 0.00279981 0
0 0 0
-0.00458142 -0.0111134 0
0.00254815 0.00279981 0
-0.0290713 -0.0301706 0
-0.0110277 -0.00738126 0
0.00254815 0.00279981 0
0 0 0
-0.0110277 -0.00738126 0
0 0 0
-0.0290713 -0.0301706 0
-0.0110277 -0.00738126 0
-0.0308568 -0.0429367 0
-0.0132669 -0.0362632 0
-0.0110277 -0.00738126 0
0 0 0
-0.0132669 -0.0362632 0
0 0 0
-0.0308568 -0.0429367 0
-0.0132669 -0.0362632 0
-0.0108944 -0.0371107 0
-0.0099328 -0.0635983 0
-0.0132669 -0.0362632 0
0 0 0
-0.0099328 -0.0635983 0
0 0 0
-0.0108944 -0.0371107 0
-0.0099328 -0.0635983 0
-0.000473644 -0.0227553 0
-0.0019637 -0.0775908 0
-0.0099328 -0.0635983 0
0 0 0
-0.0019637 -0.0775908 0
0 0 0
-0.000473644 -0.0227553 0
-0.0019637 -0.0775908 0
0.00339375 -0.00411156 0
-0.0051023 -0.085836 0
-0.0019637 -0.0775908 0
0 0 0
-0.0051023 -0.085836 0
0 0 0
0.178703 0.0083708 0
0.177238 0.00792584 0
0.183373 0.00752848 0
0.171407 0.00606067 0
0.177238 0.00792584 0
0.13133 0.00348766 0
0.171407 0.00606067 0
0.130168 0.00270998 0
0.183373 0.00752848 0
0.171407 0.00606067 0
0.185252 0.00514416 0
0.167787 0.00397795 0
0.171407 0.00606067 0
0.130168 0.00270998 0
0.167787 0.00397795 0
0.129056 0.00193633 0
0.165907 0.00680007 0
0.107145 0.00598081 0
0.161921 0.00665038 0
0.109675 0.00578287 0
0.107145 0.00598081 0
0.227202 -9.12761e-05 0
0.109675 0.00578287 0
0.214494 -8.57946e-05 0
0.161921 0.00665038 0
0.109675 0.00578287 0
0.157928 0.00658798 0
0.111778 0.00528341 0
0.109675 0.00578287 0
0.214494 -8.57946e-05 0
0.111778 0.00528341 0
0.202892 -7.8345e-05 0
0.157928 0.00658798 0
0.111778 0.00528341 0
0.153841 0.00621891 0
0.113715 0.00502768 0
0.111778 0.00528341 0
0.202892 -7.8345e-05 0
0.113715 0.00502768 0
0.192202 -7.19359e-05 0
0.153841 0.00621891 0
0.113715 0.00502768 0
0.150217 0.0056611 0
0.115399 0.0045556 0
0.113715 0.00502768 0
0.192202 -7.19359e-05 0
0.115399 0.0045556 0
0.182417 -6.22821e-05 0
0.150217 0.0056611 0
0.115399 0.0045556 0
0.147046 0.00528681 0
0.116802 0.00432226 0
0.115399 0.0045556 0
0.182417 -6.22821e-05 0
0.116802 0.00432226 0
0.173552 -5.2349e-05 0
0.147046 0.00528681 0
0.116802 0.00432226 0
0.144179 0.00514966 0
0.117887 0.00392768 0
0.116802 0.00432226 0
0.173552 -5.2349e-05 0
0.117887 0.00392768 0
0.165604 -4.06698e-05 0
0.144179 0.00514966 0
0.117887 0.00392768 0
0.141563 0.00499045 0
0.118606 0.0038752 0
0.117887 0.00392768 0
0.165604 -4.06698e-05 0
0.118606 0.0038752 0
0.158478 -3.61637e-05 0
0.141563 0.00499045 0
0.118606 0.0038752 0
0.13916 0.00485157 0
0.118968 0.00347997 0
0.118606 0.0038752 0
0.158478 -3.61637e-05 0
0.118968 0.00347997 0
0.152032 -2.75497e-05 0
0.13916 0.00485157 0
0.118968 0.00347997 0
0.136941 0.00467161 0
0.118967 0.00351097 0
0.118968 0.00347997 0
0.152032 -2.75497e-05 0
0.118967 0.00351097 0
0.146249 -1.86091e-05 0
0.136941 0.00467161 0
0.118967 0.00351097 0
0.134823 0.00487903 0
0.118666 0.00316334 0
0.118967 0.00351097 0
0.146249 -1.86091e-05 0
0.118666 0.00316334 0
0.141141 -6.53197e-06 0
0.134823 0.00487903 0
0.118666 0.00316334 0
0.132885 0.00424715 0
0.118221 0.00316299 0
0.118666 0.00316334 0
0.141141 -6.53197e-06 0
0.118221 0.00316299 0
0.136558 -1.65099e-05 0
0.132885 0.00424715 0
0.118221 0.00316299 0
0.13133 0.00348766 0