# vtk DataFile Version 3.0
#This file was generated by the deal.II library on 2026/3/26 at 11:11:57
ASCII
DATASET UNSTRUCTURED_GRID

POINTS 1296 double
0 0 0
0.214286 0 0
0 0.25 0
0.214286 0.25 0
0 0.25 0
0.214286 0.25 0
0 0.5 0
0.214286 0.5 0
0 0.5 0
0.214286 0.5 0
0 0.75 0
0.214286 0.75 0
0.214286 0 0
0.428571 0 0
0.214286 0.25 0
0.428571 0.25 0
0.214286 0.25 0
0.428571 0.25 0
0.214286 0.5 0
0.428571 0.5 0
0.214286 0.5 0
0.428571 0.5 0
0.214286 0.75 0
0.428571 0.75 0
0.428571 0 0
0.642857 0 0
0.428571 0.25 0
0.642857 0.25 0
0.428571 0.25 0
0.642857 0.25 0
0.428571 0.5 0
0.642857 0.5 0
0.428571 0.5 0
0.642857 0.5 0
0.428571 0.75 0
0.642857 0.75 0
0.642857 0 0
0.857143 0 0
0.642857 0.25 0
0.857143 0.25 0
0.642857 0.25 0
0.857143 0.25 0
0.642857 0.5 0
0.857143 0.5 0
0.642857 0.5 0
0.857143 0.5 0
0.642857 0.75 0
0.857143 0.75 0
0.857143 0 0
1.07143 0 0
0.857143 0.25 0
1.07143 0.25 0
0.857143 0.25 0
1.07143 0.25 0
0.857143 0.5 0
1.07143 0.5 0
0.857143 0.5 0
1.07143 0.5 0
0.857143 0.75 0
1.07143 0.75 0
1.07143 0 0
1.28571 0 0
1.07143 0.25 0
1.28571 0.25 0
1.07143 0.25 0
1.28571 0.25 0
1.07143 0.5 0
1.28571 0.5 0
1.07143 0.5 0
1.28571 0.5 0
1.07143 0.75 0
1.28571 0.75 0
1.28571 0 0
1.5 0 0
1.28571 0.25 0
1.5 0.25 0
1.28571 0.25 0
1.5 0.25 0
1.28571 0.5 0
1.5 0.5 0
1.28571 0.5 0
1.5 0.5 0
1.28571 0.75 0
1.5 0.75 0
1.28571 0.75 0
1.5 0.75 0
1.28571 1 0
1.5 1 0
1.5 0 0
1.71429 0 0
1.5 0.25 0
1.71429 0.25 0
1.5 0.25 0
1.71429 0.25 0
1.5 0.5 0
1.71429 0.5 0
1.5 0.5 0
1.71429 0.5 0
1.5 0.75 0
1.71429 0.75 0
1.71429 0 0
1.92857 0 0
1.71429 0.25 0
1.92857 0.25 0
1.71429 0.25 0
1.92857 0.25 0
1.71429 0.5 0
1.92857 0.5 0
1.71429 0.5 0
1.92857 0.5 0
1.71429 0.75 0
1.92857 0.75 0
1.92857 0 0
2.14286 0 0
1.92857 0.25 0
2.14286 0.25 0
1.92857 0.25 0
2.14286 0.25 0
1.92857 0.5 0
2.14286 0.5 0
1.92857 0.5 0
2.14286 0.5 0
1.92857 0.75 0
2.14286 0.75 0
2.14286 0 0
2.35714 0 0
2.14286 0.25 0
2.35714 0.25 0
2.14286 0.25 0
2.35714 0.25 0
2.14286 0.5 0
2.35714 0.5 0
2.14286 0.5 0
2.35714 0.5 0
2.14286 0.75 0
2.35714 0.75 0
2.35714 0 0
2.57143 0 0
2.35714 0.25 0
2.57143 0.25 0
2.35714 0.25 0
2.57143 0.25 0
2.35714 0.5 0
2.57143 0.5 0
2.35714 0.5 0
2.57143 0.5 0
2.35714 0.75 0
2.57143 0.75 0
2.57143 0 0
2.78571 0 0
2.57143 0.25 0
2.78571 0.25 0
2.57143 0.25 0
2.78571 0.25 0
2.57143 0.5 0
2.78571 0.5 0
2.57143 0.5 0
2.78571 0.5 0
2.57143 0.75 0
2.78571 0.75 0
2.78571 0 0
3 0 0
2.78571 0.25 0
3 0.25 0
2.78571 0.25 0
3 0.25 0
2.78571 0.5 0
3 0.5 0
2.78571 0.5 0
3 0.5 0
2.78571 0.75 0
3 0.75 0
1.28571 2 0
1.28571 1.75 0
1.5 2 0
1.5 1.75 0
0 1.75 0
0 1.5 0
0.214286 1.75 0
0.214286 1.5 0
0.214286 1.75 0
0.214286 1.5 0
0.428571 1.75 0
0.428571 1.5 0
0.428571 1.75 0
0.428571 1.5 0
0.642857 1.75 0
0.642857 1.5 0
0.642857 1.75 0
0.642857 1.5 0
0.857143 1.75 0
0.857143 1.5 0
0.857143 1.75 0
0.857143 1.5 0
1.07143 1.75 0
1.07143 1.5 0
1.07143 1.75 0
1.07143 1.5 0
1.28571 1.75 0
1.28571 1.5 0
1.28571 1.75 0
1.28571 1.5 0
1.5 1.75 0
1.5 1.5 0
1.5 1.75 0
1.5 1.5 0
1.71429 1.75 0
1.71429 1.5 0
1.71429 1.75 0
1.71429 1.5 0
1.92857 1.75 0
1.92857 1.5 0
1.92857 1.75 0
1.92857 1.5 0
2.14286 1.75 0
2.14286 1.5 0
2.14286 1.75 0
2.14286 1.5 0
2.35714 1.75 0
2.35714 1.5 0
2.35714 1.75 0
2.35714 1.5 0
2.57143 1.75 0
2.57143 1.5 0
2.57143 1.75 0
2.57143 1.5 0
2.78571 1.75 0
2.78571 1.5 0
2.78571 1.75 0
2.78571 1.5 0
3 1.75 0
3 1.5 0
0 1.5 0
0 1.25 0
0.214286 1.5 0
0.214286 1.25 0
0.214286 1.5 0
0.214286 1.25 0
0.428571 1.5 0
0.428571 1.25 0
0.428571 1.5 0
0.428571 1.25 0
0.642857 1.5 0
0.642857 1.25 0
0.642857 1.5 0
0.642857 1.25 0
0.857143 1.5 0
0.857143 1.25 0
0.857143 1.5 0
0.857143 1.25 0
1.07143 1.5 0
1.07143 1.25 0
1.07143 1.5 0
1.07143 1.25 0
1.28571 1.5 0
1.28571 1.25 0
1.28571 1.5 0
1.28571 1.25 0
1.5 1.5 0
1.5 1.25 0
1.5 1.5 0
1.5 1.25 0
1.71429 1.5 0
1.71429 1.25 0
1.71429 1.5 0
1.71429 1.25 0
1.92857 1.5 0
1.92857 1.25 0
1.92857 1.5 0
1.92857 1.25 0
2.14286 1.5 0
2.14286 1.25 0
2.14286 1.5 0
2.14286 1.25 0
2.35714 1.5 0
2.35714 1.25 0
2.35714 1.5 0
2.35714 1.25 0
2.57143 1.5 0
2.57143 1.25 0
2.57143 1.5 0
2.57143 1.25 0
2.78571 1.5 0
2.78571 1.25 0
2.78571 1.5 0
2.78571 1.25 0
3 1.5 0
3 1.25 0
1.28571 1.25 0
1.28571 1 0
1.5 1.25 0
1.5 1 0
0 3 0
0 2.75 0
0.214286 3 0
0.214286 2.75 0
0.214286 3 0
0.214286 2.75 0
0.428571 3 0
0.428571 2.75 0
0.428571 3 0
0.428571 2.75 0
0.642857 3 0
0.642857 2.75 0
0.642857 3 0
0.642857 2.75 0
0.857143 3 0
0.857143 2.75 0
0.857143 3 0
0.857143 2.75 0
1.07143 3 0
1.07143 2.75 0
1.07143 3 0
1.07143 2.75 0
1.28571 3 0
1.28571 2.75 0
1.28571 3 0
1.28571 2.75 0
1.5 3 0
1.5 2.75 0
1.5 3 0
1.5 2.75 0
1.71429 3 0
1.71429 2.75 0
1.71429 3 0
1.71429 2.75 0
1.92857 3 0
1.92857 2.75 0
1.92857 3 0
1.92857 2.75 0
2.14286 3 0
2.14286 2.75 0
2.14286 3 0
2.14286 2.75 0
2.35714 3 0
2.35714 2.75 0
2.35714 3 0
2.35714 2.75 0
2.57143 3 0
2.57143 2.75 0
2.57143 3 0
2.57143 2.75 0
2.78571 3 0
2.78571 2.75 0
2.78571 3 0
2.78571 2.75 0
3 3 0
3 2.75 0
0 2.75 0
0 2.5 0
0.214286 2.75 0
0.214286 2.5 0
0.214286 2.75 0
0.214286 2.5 0
0.428571 2.75 0
0.428571 2.5 0
0.428571 2.75 0
0.428571 2.5 0
0.642857 2.75 0
0.642857 2.5 0
0.642857 2.75 0
0.642857 2.5 0
0.857143 2.75 0
0.857143 2.5 0
0.857143 2.75 0
0.857143 2.5 0
1.07143 2.75 0
1.07143 2.5 0
1.07143 2.75 0
1.07143 2.5 0
1.28571 2.75 0
1.28571 2.5 0
1.28571 2.75 0
1.28571 2.5 0
1.5 2.75 0
1.5 2.5 0
1.5 2.75 0
1.5 2.5 0
1.71429 2.75 0
1.71429 2.5 0
1.71429 2.75 0
1.71429 2.5 0
1.92857 2.75 0
1.92857 2.5 0
1.92857 2.75 0
1.92857 2.5 0
2.14286 2.75 0
2.14286 2.5 0
2.14286 2.75 0
2.14286 2.5 0
2.35714 2.75 0
2.35714 2.5 0
2.35714 2.75 0
2.35714 2.5 0
2.57143 2.75 0
2.57143 2.5 0
2.57143 2.75 0
2.57143 2.5 0
2.78571 2.75 0
2.78571 2.5 0
2.78571 2.75 0
2.78571 2.5 0
3 2.75 0
3 2.5 0
0 2.5 0
0 2.25 0
0.214286 2.5 0
0.214286 2.25 0
0.214286 2.5 0
0.214286 2.25 0
0.428571 2.5 0
0.428571 2.25 0
0.428571 2.5 0
0.428571 2.25 0
0.642857 2.5 0
0.642857 2.25 0
0.642857 2.5 0
0.642857 2.25 0
0.857143 2.5 0
0.857143 2.25 0
0.857143 2.5 0
0.857143 2.25 0
1.07143 2.5 0
1.07143 2.25 0
1.07143 2.5 0
1.07143 2.25 0
1.28571 2.5 0
1.28571 2.25 0
1.28571 2.5 0
1.28571 2.25 0
1.5 2.5 0
1.5 2.25 0
1.5 2.5 0
1.5 2.25 0
1.71429 2.5 0
1.71429 2.25 0
1.71429 2.5 0
1.71429 2.25 0
1.92857 2.5 0
1.92857 2.25 0
1.92857 2.5 0
1.92857 2.25 0
2.14286 2.5 0
2.14286 2.25 0
2.14286 2.5 0
2.14286 2.25 0
2.35714 2.5 0
2.35714 2.25 0
2.35714 2.5 0
2.35714 2.25 0
2.57143 2.5 0
2.57143 2.25 0
2.57143 2.5 0
2.57143 2.25 0
2.78571 2.5 0
2.78571 2.25 0
2.78571 2.5 0
2.78571 2.25 0
3 2.5 0
3 2.25 0
1.28571 2.25 0
1.28571 2 0
1.5 2.25 0
1.5 2 0
0 0.75 0
0.107143 0.75 0
0 0.875 0
0.107143 0.875 0
0.107143 0.75 0
0.214286 0.75 0
0.107143 0.875 0
0.214286 0.875 0
0 0.875 0
0.107143 0.875 0
0 1 0
0.107143 1 0
0.107143 0.875 0
0.214286 0.875 0
0.107143 1 0
0.214286 1 0
0.214286 0.75 0
0.321429 0.75 0
0.214286 0.875 0
0.321429 0.875 0
0.321429 0.75 0
0.428571 0.75 0
0.321429 0.875 0
0.428571 0.875 0
0.214286 0.875 0
0.321429 0.875 0
0.214286 1 0
0.321429 1 0
0.321429 0.875 0
0.428571 0.875 0
0.321429 1 0
0.428571 1 0
0.428571 0.75 0
0.535714 0.75 0
0.428571 0.875 0
0.535714 0.875 0
0.535714 0.75 0
0.642857 0.75 0
0.535714 0.875 0
0.642857 0.875 0
0.428571 0.875 0
0.535714 0.875 0
0.428571 1 0
0.535714 1 0
0.535714 0.875 0
0.642857 0.875 0
0.535714 1 0
0.642857 1 0
0.642857 0.75 0
0.75 0.75 0
0.642857 0.875 0
0.75 0.875 0
0.75 0.75 0
0.857143 0.75 0
0.75 0.875 0
0.857143 0.875 0
0.642857 0.875 0
0.75 0.875 0
0.642857 1 0
0.75 1 0
0.75 0.875 0
0.857143 0.875 0
0.75 1 0
0.857143 1 0
0.857143 0.75 0
0.964286 0.75 0
0.857143 0.875 0
0.964286 0.875 0
0.964286 0.75 0
1.07143 0.75 0
0.964286 0.875 0
1.07143 0.875 0
0.857143 0.875 0
0.964286 0.875 0
0.857143 1 0
0.964286 1 0
0.964286 0.875 0
1.07143 0.875 0
0.964286 1 0
1.07143 1 0
1.07143 0.75 0
1.17857 0.75 0
1.07143 0.875 0
1.17857 0.875 0
1.17857 0.75 0
1.28571 0.75 0
1.17857 0.875 0
1.28571 0.875 0
1.07143 0.875 0
1.17857 0.875 0
1.07143 1 0
1.17857 1 0
1.17857 0.875 0
1.28571 0.875 0
1.17857 1 0
1.28571 1 0
1.5 0.75 0
1.60714 0.75 0
1.5 0.875 0
1.60714 0.875 0
1.60714 0.75 0
1.71429 0.75 0
1.60714 0.875 0
1.71429 0.875 0
1.5 0.875 0
1.60714 0.875 0
1.5 1 0
1.60714 1 0
1.60714 0.875 0
1.71429 0.875 0
1.60714 1 0
1.71429 1 0
1.71429 0.75 0
1.82143 0.75 0
1.71429 0.875 0
1.82143 0.875 0
1.82143 0.75 0
1.92857 0.75 0
1.82143 0.875 0
1.92857 0.875 0
1.71429 0.875 0
1.82143 0.875 0
1.71429 1 0
1.82143 1 0
1.82143 0.875 0
1.92857 0.875 0
1.82143 1 0
1.92857 1 0
1.92857 0.75 0
2.03571 0.75 0
1.92857 0.875 0
2.03571 0.875 0
2.03571 0.75 0
2.14286 0.75 0
2.03571 0.875 0
2.14286 0.875 0
1.92857 0.875 0
2.03571 0.875 0
1.92857 1 0
2.03571 1 0
2.03571 0.875 0
2.14286 0.875 0
2.03571 1 0
2.14286 1 0
2.14286 0.75 0
2.25 0.75 0
2.14286 0.875 0
2.25 0.875 0
2.25 0.75 0
2.35714 0.75 0
2.25 0.875 0
2.35714 0.875 0
2.14286 0.875 0
2.25 0.875 0
2.14286 1 0
2.25 1 0
2.25 0.875 0
2.35714 0.875 0
2.25 1 0
2.35714 1 0
2.35714 0.75 0
2.46429 0.75 0
2.35714 0.875 0
2.46429 0.875 0
2.46429 0.75 0
2.57143 0.75 0
2.46429 0.875 0
2.57143 0.875 0
2.35714 0.875 0
2.46429 0.875 0
2.35714 1 0
2.46429 1 0
2.46429 0.875 0
2.57143 0.875 0
2.46429 1 0
2.57143 1 0
2.57143 0.75 0
2.67857 0.75 0
2.57143 0.875 0
2.67857 0.875 0
2.67857 0.75 0
2.78571 0.75 0
2.67857 0.875 0
2.78571 0.875 0
2.57143 0.875 0
2.67857 0.875 0
2.57143 1 0
2.67857 1 0
2.67857 0.875 0
2.78571 0.875 0
2.67857 1 0
2.78571 1 0
2.78571 0.75 0
2.89286 0.75 0
2.78571 0.875 0
2.89286 0.875 0
2.89286 0.75 0
3 0.75 0
2.89286 0.875 0
3 0.875 0
2.78571 0.875 0
2.89286 0.875 0
2.78571 1 0
2.89286 1 0
2.89286 0.875 0
3 0.875 0
2.89286 1 0
3 1 0
0 2 0
0 1.875 0
0.107143 2 0
0.107143 1.875 0
0 1.875 0
0 1.75 0
0.107143 1.875 0
0.107143 1.75 0
0.107143 2 0
0.107143 1.875 0
0.214286 2 0
0.214286 1.875 0
0.107143 1.875 0
0.107143 1.75 0
0.214286 1.875 0
0.214286 1.75 0
0.214286 2 0
0.214286 1.875 0
0.321429 2 0
0.321429 1.875 0
0.214286 1.875 0
0.214286 1.75 0
0.321429 1.875 0
0.321429 1.75 0
0.321429 2 0
0.321429 1.875 0
0.428571 2 0
0.428571 1.875 0
0.321429 1.875 0
0.321429 1.75 0
[...]
POINT_DATA 1296
VECTORS velocity double
0 0 0
0 0 0
0 0 0
-2.11444e-05 1.35929e-05 0
0 0 0
-2.11444e-05 1.35929e-05 0
0 0 0
-0.000422835 0.000541869 0
0 0 0
-0.000422835 0.000541869 0
0 0 0
-0.000863679 0.00205538 0
0 0 0
0 0 0
-2.11444e-05 1.35929e-05 0
2.1841e-06 -5.22471e-05 0
-2.11444e-05 1.35929e-05 0
2.1841e-06 -5.22471e-05 0
-0.000422835 0.000541869 0
-0.00134818 0.000504154 0
-0.000422835 0.000541869 0
-0.00134818 0.000504154 0
-0.000863679 0.00205538 0
-0.0024947 0.00199119 0
0 0 0
0 0 0
2.1841e-06 -5.22471e-05 0
0.000195189 -0.000182897 0
2.1841e-06 -5.22471e-05 0
0.000195189 -0.000182897 0
-0.00134818 0.000504154 0
-0.00239702 0.000288798 0
-0.00134818 0.000504154 0
-0.00239702 0.000288798 0
-0.0024947 0.00199119 0
-0.00408699 0.00189027 0
0 0 0
0 0 0
0.000195189 -0.000182897 0
0.000286389 7.07658e-05 0
0.000195189 -0.000182897 0
0.000286389 7.07658e-05 0
-0.00239702 0.000288798 0
-0.00297865 0.000203739 0
-0.00239702 0.000288798 0
-0.00297865 0.000203739 0
-0.00408699 0.00189027 0
-0.00538416 0.00079737 0
0 0 0
0 0 0
0.000286389 7.07658e-05 0
-0.000325051 0.00065038 0
0.000286389 7.07658e-05 0
-0.000325051 0.00065038 0
-0.00297865 0.000203739 0
-0.00229643 0.00050129 0
-0.00297865 0.000203739 0
-0.00229643 0.00050129 0
-0.00538416 0.00079737 0
-0.00612228 -2.06204e-05 0
0 0 0
0 0 0
-0.000325051 0.00065038 0
-0.00160228 0.000827682 0
-0.000325051 0.00065038 0
-0.00160228 0.000827682 0
-0.00229643 0.00050129 0
-0.00163934 0.00174636 0
-0.00229643 0.00050129 0
-0.00163934 0.00174636 0
-0.00612228 -2.06204e-05 0
-0.00731744 0.00287439 0
0 0 0
0 0 0
-0.00160228 0.000827682 0
-0.00353992 0.00142518 0
-0.00160228 0.000827682 0
-0.00353992 0.00142518 0
-0.00163934 0.00174636 0
-0.00417009 0.00574237 0
-0.00163934 0.00174636 0
-0.00417009 0.00574237 0
-0.00731744 0.00287439 0
-0.00418019 0.00387688 0
-0.00731744 0.00287439 0
-0.00418019 0.00387688 0
0.0177135 0.00163905 0
0.0194712 -0.000560922 0
0 0 0
0 0 0
-0.00353992 0.00142518 0
-0.00881592 0.00476816 0
-0.00353992 0.00142518 0
-0.00881592 0.00476816 0
-0.00417009 0.00574237 0
-0.00803883 0.0111919 0
-0.00417009 0.00574237 0
-0.00803883 0.0111919 0
-0.00418019 0.00387688 0
0.00329625 0.00894267 0
0 0 0
0 0 0
-0.00881592 0.00476816 0
-0.0182632 0.00624977 0
-0.00881592 0.00476816 0
-0.0182632 0.00624977 0
-0.00803883 0.0111919 0
-0.0112513 0.0145085 0
-0.00803883 0.0111919 0
-0.0112513 0.0145085 0
0.00329625 0.00894267 0
0.0113969 0.0110043 0
0 0 0
0 0 0
-0.0182632 0.00624977 0
-0.0269636 0.00410085 0
-0.0182632 0.00624977 0
-0.0269636 0.00410085 0
-0.0112513 0.0145085 0
-0.0108654 0.00556745 0
-0.0112513 0.0145085 0
-0.0108654 0.00556745 0
0.0113969 0.0110043 0
0.0135789 0.00618453 0
0 0 0
0 0 0
-0.0269636 0.00410085 0
-0.0288438 -0.0017181 0
-0.0269636 0.00410085 0
-0.0288438 -0.0017181 0
-0.0108654 0.00556745 0
-0.00855602 -0.00392694 0
-0.0108654 0.00556745 0
-0.00855602 -0.00392694 0
0.0135789 0.00618453 0
0.0121814 -0.00588271 0
0 0 0
0 0 0
-0.0288438 -0.0017181 0
-0.0221156 -0.00593339 0
-0.0288438 -0.0017181 0
-0.0221156 -0.00593339 0
-0.00855602 -0.00392694 0
-0.00964726 -0.0101644 0
-0.00855602 -0.00392694 0
-0.00964726 -0.0101644 0
0.0121814 -0.00588271 0
0.00547897 0.00124195 0
0 0 0
0 0 0
-0.0221156 -0.00593339 0
-0.00878202 -0.0098341 0
-0.0221156 -0.00593339 0
-0.00878202 -0.0098341 0
-0.00964726 -0.0101644 0
-0.00586715 -0.0258724 0
-0.00964726 -0.0101644 0
-0.00586715 -0.0258724 0
0.00547897 0.00124195 0
-0.00214236 -0.0335199 0
0 0 0
0 0 0
-0.00878202 -0.0098341 0
0 0 0
-0.00878202 -0.0098341 0
0 0 0
-0.00586715 -0.0258724 0
0 0 0
-0.00586715 -0.0258724 0
0 0 0
-0.00214236 -0.0335199 0
0 0 0
0.0177135 -0.00163905 0
0.193615 0.000369278 0
0.0194712 0.000560922 0
0.193236 0.000343023 0
0.19574 0.000432058 0
0.264123 -1.76066e-13 0
0.195308 0.000367459 0
0.263886 -1.75972e-13 0
0.195308 0.000367459 0
0.263886 -1.75972e-13 0
0.19494 0.000365651 0
0.263654 -1.76572e-13 0
0.19494 0.000365651 0
0.263654 -1.76572e-13 0
0.19462 0.000295725 0
0.263454 -1.77536e-13 0
0.19462 0.000295725 0
0.263454 -1.77536e-13 0
0.194338 0.000348211 0
0.263249 -1.80302e-13 0
0.194338 0.000348211 0
0.263249 -1.80302e-13 0
0.19409 0.000317823 0
0.26302 -2.43922e-13 0
0.19409 0.000317823 0
0.26302 -2.43922e-13 0
0.193615 0.000369278 0
0.262945 -1.90504e-13 0
0.193615 0.000369278 0
0.262945 -1.90504e-13 0
0.193236 0.000343023 0
0.262933 -3.63158e-13 0
0.193236 0.000343023 0
0.262933 -3.63158e-13 0
0.192726 0.000259996 0
0.26313 -8.91539e-14 0
0.192726 0.000259996 0
0.26313 -8.91539e-14 0
0.192617 -2.60545e-05 0
0.263332 -2.03787e-13 0
0.192617 -2.60545e-05 0
0.263332 -2.03787e-13 0
0.192535 0.000363142 0
0.263393 2.8741e-14 0
0.192535 0.000363142 0
0.263393 2.8741e-14 0
0.192173 0.00121442 0
0.263064 -2.38468e-13 0
0.192173 0.00121442 0
0.263064 -2.38468e-13 0
0.191213 0.00122805 0
0.261719 1.99598e-13 0
0.191213 0.00122805 0
0.261719 1.99598e-13 0
0.189757 0.00678663 0
0.258652 -3.59659e-13 0
0.189757 0.00678663 0
0.258652 -3.59659e-13 0
0.1875 0 0
0.25 0 0
0.264123 -1.76066e-13 0
0.19574 -0.000432058 0
0.263886 -1.75972e-13 0
0.195308 -0.000367459 0
0.263886 -1.75972e-13 0
0.195308 -0.000367459 0
0.263654 -1.76572e-13 0
0.19494 -0.000365651 0
0.263654 -1.76572e-13 0
0.19494 -0.000365651 0
0.263454 -1.77536e-13 0
0.19462 -0.000295725 0
0.263454 -1.77536e-13 0
0.19462 -0.000295725 0
0.263249 -1.80302e-13 0
0.194338 -0.000348211 0
0.263249 -1.80302e-13 0
0.194338 -0.000348211 0
0.26302 -2.43922e-13 0
0.19409 -0.000317823 0
0.26302 -2.43922e-13 0
0.19409 -0.000317823 0
0.262945 -1.90504e-13 0
0.193615 -0.000369278 0
0.262945 -1.90504e-13 0
0.193615 -0.000369278 0
0.262933 -3.63158e-13 0
0.193236 -0.000343023 0
0.262933 -3.63158e-13 0
0.193236 -0.000343023 0
0.26313 -8.91539e-14 0
0.192726 -0.000259996 0
0.26313 -8.91539e-14 0
0.192726 -0.000259996 0
0.263332 -2.03787e-13 0
0.192617 2.60545e-05 0
0.263332 -2.03787e-13 0
0.192617 2.60545e-05 0
0.263393 2.8741e-14 0
0.192535 -0.000363142 0
0.263393 2.8741e-14 0
0.192535 -0.000363142 0
0.263064 -2.38468e-13 0
0.192173 -0.00121442 0
0.263064 -2.38468e-13 0
0.192173 -0.00121442 0
0.261719 1.99598e-13 0
0.191213 -0.00122805 0
0.261719 1.99598e-13 0
0.191213 -0.00122805 0
0.258652 -3.59659e-13 0
0.189757 -0.00678663 0
0.258652 -3.59659e-13 0
0.189757 -0.00678663 0
0.25 0 0
0.1875 0 0
0.193615 -0.000369278 0
0.0177135 0.00163905 0
0.193236 -0.000343023 0
0.0194712 -0.000560922 0
0 0 0
0 0 0
0 0 0
-2.11444e-05 -1.35929e-05 0
0 0 0
-2.11444e-05 -1.35929e-05 0
0 0 0
2.1841e-06 5.22471e-05 0
0 0 0
2.1841e-06 5.22471e-05 0
0 0 0
0.000195189 0.000182897 0
0 0 0
0.000195189 0.000182897 0
0 0 0
0.000286389 -7.07658e-05 0
0 0 0
0.000286389 -7.07658e-05 0
0 0 0
-0.000325051 -0.00065038 0
0 0 0
-0.000325051 -0.00065038 0
0 0 0
-0.00160228 -0.000827682 0
0 0 0
-0.00160228 -0.000827682 0
0 0 0
-0.00353992 -0.00142518 0
0 0 0
-0.00353992 -0.00142518 0
0 0 0
-0.00881592 -0.00476816 0
0 0 0
-0.00881592 -0.00476816 0
0 0 0
-0.0182632 -0.00624977 0
0 0 0
-0.0182632 -0.00624977 0
0 0 0
-0.0269636 -0.00410085 0
0 0 0
-0.0269636 -0.00410085 0
0 0 0
-0.0288438 0.0017181 0
0 0 0
-0.0288438 0.0017181 0
0 0 0
-0.0221156 0.00593339 0
0 0 0
-0.0221156 0.00593339 0
0 0 0
-0.00878202 0.0098341 0
0 0 0
-0.00878202 0.0098341 0
0 0 0
0 0 0
0 0 0
0 0 0
-2.11444e-05 -1.35929e-05 0
-0.000422835 -0.000541869 0
-2.11444e-05 -1.35929e-05 0
-0.000422835 -0.000541869 0
2.1841e-06 5.22471e-05 0
-0.00134818 -0.000504154 0
2.1841e-06 5.22471e-05 0
-0.00134818 -0.000504154 0
0.000195189 0.000182897 0
-0.00239702 -0.000288798 0
0.000195189 0.000182897 0
-0.00239702 -0.000288798 0
0.000286389 -7.07658e-05 0
-0.00297865 -0.000203739 0
0.000286389 -7.07658e-05 0
-0.00297865 -0.000203739 0
-0.000325051 -0.00065038 0
-0.00229643 -0.00050129 0
-0.000325051 -0.00065038 0
-0.00229643 -0.00050129 0
-0.00160228 -0.000827682 0
-0.00163934 -0.00174636 0
-0.00160228 -0.000827682 0
-0.00163934 -0.00174636 0
-0.00353992 -0.00142518 0
-0.00417009 -0.00574237 0
-0.00353992 -0.00142518 0
-0.00417009 -0.00574237 0
-0.00881592 -0.00476816 0
-0.00803883 -0.0111919 0
-0.00881592 -0.00476816 0
-0.00803883 -0.0111919 0
-0.0182632 -0.00624977 0
-0.0112513 -0.0145085 0
-0.0182632 -0.00624977 0
-0.0112513 -0.0145085 0
-0.0269636 -0.00410085 0
-0.0108654 -0.00556745 0
-0.0269636 -0.00410085 0
-0.0108654 -0.00556745 0
-0.0288438 0.0017181 0
-0.00855602 0.00392694 0
-0.0288438 0.0017181 0
-0.00855602 0.00392694 0
-0.0221156 0.00593339 0
-0.00964726 0.0101644 0
-0.0221156 0.00593339 0
-0.00964726 0.0101644 0
-0.00878202 0.0098341 0
-0.00586715 0.0258724 0
-0.00878202 0.0098341 0
-0.00586715 0.0258724 0
0 0 0
0 0 0
0 0 0
0 0 0
-0.000422835 -0.000541869 0
-0.000863679 -0.00205538 0
-0.000422835 -0.000541869 0
-0.000863679 -0.00205538 0
-0.00134818 -0.000504154 0
-0.0024947 -0.00199119 0
-0.00134818 -0.000504154 0
-0.0024947 -0.00199119 0
-0.00239702 -0.000288798 0
-0.00408699 -0.00189027 0
-0.00239702 -0.000288798 0
-0.00408699 -0.00189027 0
-0.00297865 -0.000203739 0
-0.00538416 -0.00079737 0
-0.00297865 -0.000203739 0
-0.00538416 -0.00079737 0
-0.00229643 -0.00050129 0
-0.00612228 2.06204e-05 0
-0.00229643 -0.00050129 0
-0.00612228 2.06204e-05 0
-0.00163934 -0.00174636 0
-0.00731744 -0.00287439 0
-0.00163934 -0.00174636 0
-0.00731744 -0.00287439 0
-0.00417009 -0.00574237 0
-0.00418019 -0.00387688 0
-0.00417009 -0.00574237 0
-0.00418019 -0.00387688 0
-0.00803883 -0.0111919 0
0.00329625 -0.00894267 0
-0.00803883 -0.0111919 0
0.00329625 -0.00894267 0
-0.0112513 -0.0145085 0
0.0113969 -0.0110043 0
-0.0112513 -0.0145085 0
0.0113969 -0.0110043 0
-0.0108654 -0.00556745 0
0.0135789 -0.00618453 0
-0.0108654 -0.00556745 0
0.0135789 -0.00618453 0
-0.00855602 0.00392694 0
0.0121814 0.00588271 0
-0.00855602 0.00392694 0
0.0121814 0.00588271 0
-0.00964726 0.0101644 0
0.00547897 -0.00124195 0
-0.00964726 0.0101644 0
0.00547897 -0.00124195 0
-0.00586715 0.0258724 0
-0.00214236 0.0335199 0
-0.00586715 0.0258724 0
-0.00214236 0.0335199 0
0 0 0
0 0 0
-0.00731744 -0.00287439 0
0.0177135 -0.00163905 0
-0.00418019 -0.00387688 0
0.0194712 0.000560922 0
0 0 0
-0.000209801 0.00105009 0
0 0 0
-0.00111112 0.00274211 0
-0.000209801 0.00105009 0
-0.000863679 0.00205538 0
-0.00111112 0.00274211 0
-0.00253599 0.00295152 0
0 0 0
-0.00111112 0.00274211 0
0 0 0
0.00206842 0.00195133 0
-0.00111112 0.00274211 0
-0.00253599 0.00295152 0
0.00206842 0.00195133 0
0.00565024 0.00151817 0
-0.000863679 0.00205538 0
-0.00170567 0.00202031 0
-0.00253599 0.00295152 0
-0.00298488 0.00280003 0
-0.00170567 0.00202031 0
-0.0024947 0.00199119 0
-0.00298488 0.00280003 0
-0.003237 0.00259013 0
-0.00253599 0.00295152 0
-0.00298488 0.00280003 0
0.00565024 0.00151817 0
0.00851756 0.00170676 0
-0.00298488 0.00280003 0
-0.003237 0.00259013 0
0.00851756 0.00170676 0
0.0109398 0.00139373 0
-0.0024947 0.00199119 0
-0.00327497 0.0019457 0
-0.003237 0.00259013 0
-0.00302169 0.00219432 0
-0.00327497 0.0019457 0
-0.00408699 0.00189027 0
-0.00302169 0.00219432 0
-0.00246444 0.00211303 0
-0.003237 0.00259013 0
-0.00302169 0.00219432 0
0.0109398 0.00139373 0
0.0127721 0.00123315 0
-0.00302169 0.00219432 0
-0.00246444 0.00211303 0
0.0127721 0.00123315 0
0.0143018 0.000810203 0
-0.00408699 0.00189027 0
-0.00482307 0.00135047 0
-0.00246444 0.00211303 0
-0.00200907 0.00164764 0
-0.00482307 0.00135047 0
-0.00538416 0.00079737 0
-0.00200907 0.00164764 0
-0.00248115 0.0018782 0
-0.00246444 0.00211303 0
-0.00200907 0.00164764 0
0.0143018 0.000810203 0
0.015542 0.00117213 0
-0.00200907 0.00164764 0
-0.00248115 0.0018782 0
0.015542 0.00117213 0
0.0170399 0.00128138 0
-0.00538416 0.00079737 0
-0.00580255 0.000347303 0
-0.00248115 0.0018782 0
-0.0027788 0.000307015 0
-0.00580255 0.000347303 0
-0.00612228 -2.06204e-05 0
-0.0027788 0.000307015 0
-0.00306292 0.000915654 0
-0.00248115 0.0018782 0
-0.0027788 0.000307015 0
0.0170399 0.00128138 0
0.0178264 0.000475304 0
-0.0027788 0.000307015 0
-0.00306292 0.000915654 0
0.0178264 0.000475304 0
0.0184119 0.000434896 0
-0.00612228 -2.06204e-05 0
-0.00655709 0.00144167 0
-0.00306292 0.000915654 0
-0.0021975 0.000225225 0
-0.00655709 0.00144167 0
-0.00731744 0.00287439 0
-0.0021975 0.000225225 0
-0.00045071 0.00312853 0
-0.00306292 0.000915654 0
-0.0021975 0.000225225 0
0.0184119 0.000434896 0
0.0181361 0.000154138 0
-0.0021975 0.000225225 0
-0.00045071 0.00312853 0
0.0181361 0.000154138 0
0.0177135 0.00163905 0
-0.00418019 0.00387688 0
-0.00026153 0.00631354 0
0.00196759 0.000369142 0
0.00458157 0.00201789 0
-0.00026153 0.00631354 0
0.00329625 0.00894267 0
0.00458157 0.00201789 0
0.00676813 0.00628731 0
0.00196759 0.000369142 0
0.00458157 0.00201789 0
0.0194712 -0.000560922 0
0.0187159 0.000737446 0
0.00458157 0.00201789 0
0.00676813 0.00628731 0
0.0187159 0.000737446 0
0.020909 0.00228267 0
0.00329625 0.00894267 0
0.0069945 0.0101478 0
0.00676813 0.00628731 0
0.0105277 0.00394883 0
0.0069945 0.0101478 0
0.0113969 0.0110043 0
0.0105277 0.00394883 0
0.0138593 0.00802606 0
0.00676813 0.00628731 0
0.0105277 0.00394883 0
0.020909 0.00228267 0
0.022792 0.00136742 0
0.0105277 0.00394883 0
0.0138593 0.00802606 0
0.022792 0.00136742 0
0.0259416 0.00280311 0
0.0113969 0.0110043 0
0.0143461 0.00842895 0
0.0138593 0.00802606 0
0.0178663 0.00315782 0
0.0143461 0.00842895 0
0.0135789 0.00618453 0
0.0178663 0.00315782 0
0.0213556 0.00815923 0
0.0138593 0.00802606 0
0.0178663 0.00315782 0
0.0259416 0.00280311 0
0.0281359 0.00114439 0
0.0178663 0.00315782 0
0.0213556 0.00815923 0
0.0281359 0.00114439 0
0.0305332 0.00299393 0
0.0135789 0.00618453 0
0.0118667 0.000468976 0
0.0213556 0.00815923 0
0.023184 -0.00173139 0
0.0118667 0.000468976 0
0.0121814 -0.00588271 0
0.023184 -0.00173139 0
0.0186489 0.00121919 0
0.0213556 0.00815923 0
0.023184 -0.00173139 0
0.0305332 0.00299393 0
0.0317535 -8.74955e-05 0
0.023184 -0.00173139 0
0.0186489 0.00121919 0
0.0317535 -8.74955e-05 0
0.034184 0.00159487 0
0.0121814 -0.00588271 0
0.0112537 -0.00287671 0
0.0186489 0.00121919 0
0.0158166 -0.00565322 0
0.0112537 -0.00287671 0
0.00547897 0.00124195 0
0.0158166 -0.00565322 0
0.01789 0.00824025 0
0.0186489 0.00121919 0
0.0158166 -0.00565322 0
0.034184 0.00159487 0
0.0339048 -0.00226901 0
0.0158166 -0.00565322 0
0.01789 0.00824025 0
0.0339048 -0.00226901 0
0.034647 0.00107543 0
0.00547897 0.00124195 0
-0.000678472 -0.0154236 0
0.01789 0.00824025 0
0.0185248 -0.0161701 0
-0.000678472 -0.0154236 0
-0.00214236 -0.0335199 0
0.0185248 -0.0161701 0
-0.0036054 -0.0050881 0
0.01789 0.00824025 0
0.0185248 -0.0161701 0
0.034647 0.00107543 0
0.0324938 -0.0072236 0
0.0185248 -0.0161701 0
-0.0036054 -0.0050881 0
0.0324938 -0.0072236 0
0.0383907 0.00392877 0
-0.00214236 -0.0335199 0
-0.000817049 -0.0193418 0
-0.0036054 -0.0050881 0
-0.0142194 -0.0370082 0
-0.000817049 -0.0193418 0
0 0 0
-0.0142194 -0.0370082 0
0 0 0
-0.0036054 -0.0050881 0
-0.0142194 -0.0370082 0
0.0383907 0.00392877 0
0.028159 -0.0210981 0
-0.0142194 -0.0370082 0
0 0 0
0.028159 -0.0210981 0
0 0 0
0 0 0
0.0886289 0.000347807 0
0.00206842 -0.00195133 0
0.0889116 0.000451278 0
0.0886289 0.000347807 0
0.19574 0.000432058 0
0.0889116 0.000451278 0
0.195497 0.000395011 0
0.00206842 -0.00195133 0
0.0889116 0.000451278 0
0.00565024 -0.00151817 0
0.0890274 0.000473746 0
0.0889116 0.000451278 0
0.195497 0.000395011 0
0.0890274 0.000473746 0
0.195308 0.000367459 0
0.00565024 -0.00151817 0
0.0890274 0.000473746 0
0.00851756 -0.00170676 0
0.0893509 0.000197763 0
0.0890274 0.000473746 0
0.195308 0.000367459 0
0.0893509 0.000197763 0
0.195135 0.000364893 0
0.00851756 -0.00170676 0
0.0893509 0.000197763 0
0.0109398 -0.00139373 0
0.089861 0.000347433 0
0.0893509 0.000197763 0
0.195135 0.000364893 0
0.089861 0.000347433 0
0.19494 0.000365651 0
0.0109398 -0.00139373 0
0.089861 0.000347433 0
0.0127721 -0.00123315 0
0.0904273 0.000104536 0
0.089861 0.000347433 0
0.19494 0.000365651 0
0.0904273 0.000104536 0
0.194752 0.000330316 0
0.0127721 -0.00123315 0
0.0904273 0.000104536 0
0.0143018 -0.000810203 0
0.0908527 0.000454907 0
0.0904273 0.000104536 0
0.194752 0.000330316 0
0.0908527 0.000454907 0
0.19462 0.000295725 0
0.0143018 -0.000810203 0
0.0908527 0.000454907 0
0.015542 -0.00117213 0
0.091362 5.40108e-07 0
0.0908527 0.000454907 0
0.19462 0.000295725 0
0.091362 5.40108e-07 0
0.194496 0.000321862 0
0.015542 -0.00117213 0
0.091362 5.40108e-07 0
0.0170399 -0.00128138 0
0.092011 0.000485229 0
0.091362 5.40108e-07 0
0.194496 0.000321862 0
0.092011 0.000485229 0
0.194338 0.000348211 0
0.0170399 -0.00128138 0
0.092011 0.000485229 0
0.0178264 -0.000475304 0
0.0926857 -4.565e-05 0
0.092011 0.000485229 0
0.194338 0.000348211 0
0.0926857 -4.565e-05 0
0.194181 0.000321057 0
0.0178264 -0.000475304 0
0.0926857 -4.565e-05 0
0.0184119 -0.000434896 0
0.0930872 0.000818693 0
0.0926857 -4.565e-05 0
0.194181 0.000321057 0
0.0930872 0.000818693 0
0.19409 0.000317823 0
0.0184119 -0.000434896 0
0.0930872 0.000818693 0
0.0181361 -0.000154138 0
0.0938282 -0.000251311 0
0.0930872 0.000818693 0
0.19409 0.000317823 0
0.0938282 -0.000251311 0
0.193925 0.000399358 0
0.0181361 -0.000154138 0
0.0938282 -0.000251311 0
0.0177135 -0.00163905 0
0.0952898 0.000111012 0
0.0938282 -0.000251311 0
0.193925 0.000399358 0
0.0952898 0.000111012 0
0.193615 0.000369278 0
0.0194712 0.000560922 0
0.0960845 0.000342128 0
0.0187159 -0.000737446 0
0.096454 -0.000640675 0
0.0960845 0.000342128 0
0.193236 0.000343023 0
0.096454 -0.000640675 0
0.193129 0.000304926 0
0.0187159 -0.000737446 0
0.096454 -0.000640675 0
0.020909 -0.00228267 0
0.0966987 0.000767869 0
0.096454 -0.000640675 0
0.193129 0.000304926 0
0.0966987 0.000767869 0
0.192726 0.000259996 0
0.020909 -0.00228267 0
0.0966987 0.000767869 0
0.022792 -0.00136742 0
0.0971951 -0.00130132 0
0.0966987 0.000767869 0
0.192726 0.000259996 0
0.0971951 -0.00130132 0
0.192351 9.59252e-05 0
0.022792 -0.00136742 0
0.0971951 -0.00130132 0
0.0259416 -0.00280311 0
0.0968861 0.000871509 0
0.0971951 -0.00130132 0
0.192351 9.59252e-05 0
0.0968861 0.000871509 0
0.192617 -2.60545e-05 0
0.0259416 -0.00280311 0
0.0968861 0.000871509 0
0.0281359 -0.00114439 0
0.0968607 -0.00177077 0
0.0968861 0.000871509 0
0.192617 -2.60545e-05 0
0.0968607 -0.00177077 0
0.192918 0.000238027 0
0.0281359 -0.00114439 0
0.0968607 -0.00177077 0
0.0305332 -0.00299393 0
0.0973672 0.00169318 0
0.0968607 -0.00177077 0
0.192918 0.000238027 0
0.0973672 0.00169318 0
0.192535 0.000363142 0
0.0305332 -0.00299393 0
0.0973672 0.00169318 0
0.0317535 8.74955e-05 0
0.0980564 -0.00178054 0
0.0973672 0.00169318 0
0.192535 0.000363142 0
0.0980564 -0.00178054 0
0.192005 0.000574077 0
0.0317535 8.74955e-05 0
0.0980564 -0.00178054 0
0.034184 -0.00159487 0
0.0976154 0.00338056 0
0.0980564 -0.00178054 0
0.192005 0.000574077 0
0.0976154 0.00338056 0
0.192173 0.00121442 0
0.034184 -0.00159487 0
0.0976154 0.00338056 0
0.0339048 0.00226901 0
0.0980094 -0.00177651 0
0.0976154 0.00338056 0
0.192173 0.00121442 0
0.0980094 -0.00177651 0
0.192142 0.00181364 0
0.0339048 0.00226901 0
0.0980094 -0.00177651 0
0.034647 -0.00107543 0
0.0982494 0.00517543 0
0.0980094 -0.00177651 0
0.192142 0.00181364 0
0.0982494 0.00517543 0
0.191213 0.00122805 0
0.034647 -0.00107543 0
0.0982494 0.00517543 0
0.0324938 0.0072236 0
0.0979515 -0.00107072 0
0.0982494 0.00517543 0
0.191213 0.00122805 0
0.0979515 -0.00107072 0
0.19021 0.00249785 0
0.0324938 0.0072236 0
0.0979515 -0.00107072 0
0.0383907 -0.00392877 0
0.0970138 0.0113195 0
0.0979515 -0.00107072 0
0.19021 0.00249785 0
0.0970138 0.0113195 0
0.189757 0.00678663 0
0.0383907 -0.00392877 0
0.0970138 0.0113195 0
0.028159 0.0210981 0
0.10091 -0.000613747 0
0.0970138 0.0113195 0
0.189757 0.00678663 0
0.10091 -0.000613747 0
0.188499 0.00818161 0
0.028159 0.0210981 0
0.10091 -0.000613747 0
0 0 0
0.109375 0 0
0.10091 -0.000613747 0
0.188499 0.00818161 0
0.109375 0 0
0.1875 0 0
0.19574 -0.000432058 0
0.0886289 -0.000347807 0
0.195497 -0.000395011 0
0.0889116 -0.000451278 0
0.0886289 -0.000347807 0
0 0 0
0.0889116 -0.000451278 0
0.00206842 0.00195133 0
0.195497 -0.000395011 0
0.0889116 -0.000451278 0
0.195308 -0.000367459 0
0.0890274 -0.000473746 0
0.0889116 -0.000451278 0