# vtk DataFile Version 3.0
#This file was generated by the deal.II library on 2026/3/26 at 11:25:17
ASCII
DATASET UNSTRUCTURED_GRID

POINTS 8784 double
0 0 0
0.214286 0 0
0 0.25 0
0.214286 0.25 0
0 0.25 0
0.214286 0.25 0
0 0.5 0
0.214286 0.5 0
0.214286 0 0
0.428571 0 0
0.214286 0.25 0
0.428571 0.25 0
0.214286 0.25 0
0.428571 0.25 0
0.214286 0.5 0
0.428571 0.5 0
0 3 0
0 2.75 0
0.214286 3 0
0.214286 2.75 0
0.214286 3 0
0.214286 2.75 0
0.428571 3 0
0.428571 2.75 0
0 2.75 0
0 2.5 0
0.214286 2.75 0
0.214286 2.5 0
0.214286 2.75 0
0.214286 2.5 0
0.428571 2.75 0
0.428571 2.5 0
0.857143 0.75 0
0.964286 0.75 0
0.857143 0.875 0
0.964286 0.875 0
0.964286 0.75 0
1.07143 0.75 0
0.964286 0.875 0
1.07143 0.875 0
0.857143 0.875 0
0.964286 0.875 0
0.857143 1 0
0.964286 1 0
0.964286 0.875 0
1.07143 0.875 0
0.964286 1 0
1.07143 1 0
1.07143 0.75 0
1.17857 0.75 0
1.07143 0.875 0
1.17857 0.875 0
1.17857 0.75 0
1.28571 0.75 0
1.17857 0.875 0
1.28571 0.875 0
1.07143 0.875 0
1.17857 0.875 0
1.07143 1 0
1.17857 1 0
1.17857 0.875 0
1.28571 0.875 0
1.17857 1 0
1.28571 1 0
0.857143 2 0
0.857143 1.875 0
0.964286 2 0
0.964286 1.875 0
0.857143 1.875 0
0.857143 1.75 0
0.964286 1.875 0
0.964286 1.75 0
0.964286 2 0
0.964286 1.875 0
1.07143 2 0
1.07143 1.875 0
0.964286 1.875 0
0.964286 1.75 0
1.07143 1.875 0
1.07143 1.75 0
1.07143 2 0
1.07143 1.875 0
1.17857 2 0
1.17857 1.875 0
1.07143 1.875 0
1.07143 1.75 0
1.17857 1.875 0
1.17857 1.75 0
1.17857 2 0
1.17857 1.875 0
1.28571 2 0
1.28571 1.875 0
1.17857 1.875 0
1.17857 1.75 0
1.28571 1.875 0
1.28571 1.75 0
0.857143 1.25 0
0.857143 1.125 0
0.964286 1.25 0
0.964286 1.125 0
0.857143 1.125 0
0.857143 1 0
0.964286 1.125 0
0.964286 1 0
0.964286 1.25 0
0.964286 1.125 0
1.07143 1.25 0
1.07143 1.125 0
0.964286 1.125 0
0.964286 1 0
1.07143 1.125 0
1.07143 1 0
1.07143 1.25 0
1.07143 1.125 0
1.17857 1.25 0
1.17857 1.125 0
1.07143 1.125 0
1.07143 1 0
1.17857 1.125 0
1.17857 1 0
1.17857 1.25 0
1.17857 1.125 0
1.28571 1.25 0
1.28571 1.125 0
1.17857 1.125 0
1.17857 1 0
1.28571 1.125 0
1.28571 1 0
0.857143 2.25 0
0.857143 2.125 0
0.964286 2.25 0
0.964286 2.125 0
0.857143 2.125 0
0.857143 2 0
0.964286 2.125 0
0.964286 2 0
0.964286 2.25 0
0.964286 2.125 0
1.07143 2.25 0
1.07143 2.125 0
0.964286 2.125 0
0.964286 2 0
1.07143 2.125 0
1.07143 2 0
1.07143 2.25 0
1.07143 2.125 0
1.17857 2.25 0
1.17857 2.125 0
1.07143 2.125 0
1.07143 2 0
1.17857 2.125 0
1.17857 2 0
1.17857 2.25 0
1.17857 2.125 0
1.28571 2.25 0
1.28571 2.125 0
1.17857 2.125 0
1.17857 2 0
1.28571 2.125 0
1.28571 2 0
0 0.5 0
0.107143 0.5 0
0 0.625 0
0.107143 0.625 0
0.107143 0.5 0
0.214286 0.5 0
0.107143 0.625 0
0.214286 0.625 0
0 0.625 0
0.107143 0.625 0
0 0.75 0
0.107143 0.75 0
0.107143 0.625 0
0.214286 0.625 0
0.107143 0.75 0
0.214286 0.75 0
0.214286 0.5 0
0.321429 0.5 0
0.214286 0.625 0
0.321429 0.625 0
0.321429 0.5 0
0.428571 0.5 0
0.321429 0.625 0
0.428571 0.625 0
0.214286 0.625 0
0.321429 0.625 0
0.214286 0.75 0
0.321429 0.75 0
0.321429 0.625 0
0.428571 0.625 0
0.321429 0.75 0
0.428571 0.75 0
2.57143 0 0
2.67857 0 0
2.57143 0.125 0
2.67857 0.125 0
2.67857 0 0
2.78571 0 0
2.67857 0.125 0
2.78571 0.125 0
2.57143 0.125 0
2.67857 0.125 0
2.57143 0.25 0
2.67857 0.25 0
2.67857 0.125 0
2.78571 0.125 0
2.67857 0.25 0
2.78571 0.25 0
2.78571 0 0
2.89286 0 0
2.78571 0.125 0
2.89286 0.125 0
2.89286 0 0
3 0 0
2.89286 0.125 0
3 0.125 0
2.78571 0.125 0
2.89286 0.125 0
2.78571 0.25 0
2.89286 0.25 0
2.89286 0.125 0
3 0.125 0
2.89286 0.25 0
3 0.25 0
0.857143 1.75 0
0.857143 1.625 0
0.964286 1.75 0
0.964286 1.625 0
0.857143 1.625 0
0.857143 1.5 0
0.964286 1.625 0
0.964286 1.5 0
0.964286 1.75 0
0.964286 1.625 0
1.07143 1.75 0
1.07143 1.625 0
0.964286 1.625 0
0.964286 1.5 0
1.07143 1.625 0
1.07143 1.5 0
1.07143 1.75 0
1.07143 1.625 0
1.17857 1.75 0
1.17857 1.625 0
1.07143 1.625 0
1.07143 1.5 0
1.17857 1.625 0
1.17857 1.5 0
1.17857 1.75 0
1.17857 1.625 0
1.28571 1.75 0
1.28571 1.625 0
1.17857 1.625 0
1.17857 1.5 0
1.28571 1.625 0
1.28571 1.5 0
1.28571 1.75 0
1.28571 1.625 0
1.39286 1.75 0
1.39286 1.625 0
1.28571 1.625 0
1.28571 1.5 0
1.39286 1.625 0
1.39286 1.5 0
1.39286 1.75 0
1.39286 1.625 0
1.5 1.75 0
1.5 1.625 0
1.39286 1.625 0
1.39286 1.5 0
1.5 1.625 0
1.5 1.5 0
1.5 1.75 0
1.5 1.625 0
1.60714 1.75 0
1.60714 1.625 0
1.5 1.625 0
1.5 1.5 0
1.60714 1.625 0
1.60714 1.5 0
1.60714 1.75 0
1.60714 1.625 0
1.71429 1.75 0
1.71429 1.625 0
1.60714 1.625 0
1.60714 1.5 0
1.71429 1.625 0
1.71429 1.5 0
1.71429 1.75 0
1.71429 1.625 0
1.82143 1.75 0
1.82143 1.625 0
1.71429 1.625 0
1.71429 1.5 0
1.82143 1.625 0
1.82143 1.5 0
1.82143 1.75 0
1.82143 1.625 0
1.92857 1.75 0
1.92857 1.625 0
1.82143 1.625 0
1.82143 1.5 0
1.92857 1.625 0
1.92857 1.5 0
1.92857 1.75 0
1.92857 1.625 0
2.03571 1.75 0
2.03571 1.625 0
1.92857 1.625 0
1.92857 1.5 0
2.03571 1.625 0
2.03571 1.5 0
2.03571 1.75 0
2.03571 1.625 0
2.14286 1.75 0
2.14286 1.625 0
2.03571 1.625 0
2.03571 1.5 0
2.14286 1.625 0
2.14286 1.5 0
2.14286 1.75 0
2.14286 1.625 0
2.25 1.75 0
2.25 1.625 0
2.14286 1.625 0
2.14286 1.5 0
2.25 1.625 0
2.25 1.5 0
2.25 1.75 0
2.25 1.625 0
2.35714 1.75 0
2.35714 1.625 0
2.25 1.625 0
2.25 1.5 0
2.35714 1.625 0
2.35714 1.5 0
1.07143 1.5 0
1.07143 1.375 0
1.17857 1.5 0
1.17857 1.375 0
1.07143 1.375 0
1.07143 1.25 0
1.17857 1.375 0
1.17857 1.25 0
1.17857 1.5 0
1.17857 1.375 0
1.28571 1.5 0
1.28571 1.375 0
1.17857 1.375 0
1.17857 1.25 0
1.28571 1.375 0
1.28571 1.25 0
1.28571 1.5 0
1.28571 1.375 0
1.39286 1.5 0
1.39286 1.375 0
1.28571 1.375 0
1.28571 1.25 0
1.39286 1.375 0
1.39286 1.25 0
1.39286 1.5 0
1.39286 1.375 0
1.5 1.5 0
1.5 1.375 0
1.39286 1.375 0
1.39286 1.25 0
1.5 1.375 0
1.5 1.25 0
1.5 1.5 0
1.5 1.375 0
1.60714 1.5 0
1.60714 1.375 0
1.5 1.375 0
1.5 1.25 0
1.60714 1.375 0
1.60714 1.25 0
1.60714 1.5 0
1.60714 1.375 0
1.71429 1.5 0
1.71429 1.375 0
1.60714 1.375 0
1.60714 1.25 0
1.71429 1.375 0
1.71429 1.25 0
1.71429 1.5 0
1.71429 1.375 0
1.82143 1.5 0
1.82143 1.375 0
1.71429 1.375 0
1.71429 1.25 0
1.82143 1.375 0
1.82143 1.25 0
1.82143 1.5 0
1.82143 1.375 0
1.92857 1.5 0
1.92857 1.375 0
1.82143 1.375 0
1.82143 1.25 0
1.92857 1.375 0
1.92857 1.25 0
1.92857 1.5 0
1.92857 1.375 0
2.03571 1.5 0
2.03571 1.375 0
1.92857 1.375 0
1.92857 1.25 0
2.03571 1.375 0
2.03571 1.25 0
2.03571 1.5 0
2.03571 1.375 0
2.14286 1.5 0
2.14286 1.375 0
2.03571 1.375 0
2.03571 1.25 0
2.14286 1.375 0
2.14286 1.25 0
2.14286 1.5 0
2.14286 1.375 0
2.25 1.5 0
2.25 1.375 0
2.14286 1.375 0
2.14286 1.25 0
2.25 1.375 0
2.25 1.25 0
2.25 1.5 0
2.25 1.375 0
2.35714 1.5 0
2.35714 1.375 0
2.25 1.375 0
2.25 1.25 0
2.35714 1.375 0
2.35714 1.25 0
2.57143 3 0
2.57143 2.875 0
2.67857 3 0
2.67857 2.875 0
2.57143 2.875 0
2.57143 2.75 0
2.67857 2.875 0
2.67857 2.75 0
2.67857 3 0
2.67857 2.875 0
2.78571 3 0
2.78571 2.875 0
2.67857 2.875 0
2.67857 2.75 0
2.78571 2.875 0
2.78571 2.75 0
2.78571 3 0
2.78571 2.875 0
2.89286 3 0
2.89286 2.875 0
2.78571 2.875 0
2.78571 2.75 0
2.89286 2.875 0
2.89286 2.75 0
2.89286 3 0
2.89286 2.875 0
3 3 0
3 2.875 0
2.89286 2.875 0
2.89286 2.75 0
3 2.875 0
3 2.75 0
0 2.5 0
0 2.375 0
0.107143 2.5 0
0.107143 2.375 0
0 2.375 0
0 2.25 0
0.107143 2.375 0
0.107143 2.25 0
0.107143 2.5 0
0.107143 2.375 0
0.214286 2.5 0
0.214286 2.375 0
0.107143 2.375 0
0.107143 2.25 0
0.214286 2.375 0
0.214286 2.25 0
0.214286 2.5 0
0.214286 2.375 0
0.321429 2.5 0
0.321429 2.375 0
0.214286 2.375 0
0.214286 2.25 0
0.321429 2.375 0
0.321429 2.25 0
0.321429 2.5 0
0.321429 2.375 0
0.428571 2.5 0
0.428571 2.375 0
0.321429 2.375 0
0.321429 2.25 0
0.428571 2.375 0
0.428571 2.25 0
0.428571 0 0
0.535714 0 0
0.428571 0.125 0
0.535714 0.125 0
0.535714 0 0
0.642857 0 0
0.535714 0.125 0
0.642857 0.125 0
0.428571 0.125 0
0.535714 0.125 0
0.428571 0.25 0
0.535714 0.25 0
0.535714 0.125 0
0.642857 0.125 0
0.535714 0.25 0
0.642857 0.25 0
0.428571 0.25 0
0.535714 0.25 0
0.428571 0.375 0
0.535714 0.375 0
0.535714 0.25 0
0.642857 0.25 0
0.535714 0.375 0
0.642857 0.375 0
0.428571 0.375 0
0.535714 0.375 0
0.428571 0.5 0
0.535714 0.5 0
0.535714 0.375 0
0.642857 0.375 0
0.535714 0.5 0
0.642857 0.5 0
0.428571 0.5 0
0.535714 0.5 0
0.428571 0.625 0
0.535714 0.625 0
0.535714 0.5 0
0.642857 0.5 0
0.535714 0.625 0
0.642857 0.625 0
0.428571 0.625 0
0.535714 0.625 0
0.428571 0.75 0
0.535714 0.75 0
0.535714 0.625 0
0.642857 0.625 0
0.535714 0.75 0
0.642857 0.75 0
0.642857 0 0
0.75 0 0
0.642857 0.125 0
0.75 0.125 0
0.75 0 0
0.857143 0 0
0.75 0.125 0
0.857143 0.125 0
0.642857 0.125 0
0.75 0.125 0
0.642857 0.25 0
0.75 0.25 0
0.75 0.125 0
0.857143 0.125 0
0.75 0.25 0
0.857143 0.25 0
0.642857 0.25 0
0.75 0.25 0
0.642857 0.375 0
0.75 0.375 0
0.75 0.25 0
0.857143 0.25 0
0.75 0.375 0
0.857143 0.375 0
0.642857 0.375 0
0.75 0.375 0
0.642857 0.5 0
0.75 0.5 0
0.75 0.375 0
0.857143 0.375 0
0.75 0.5 0
0.857143 0.5 0
0.642857 0.5 0
0.75 0.5 0
0.642857 0.625 0
0.75 0.625 0
0.75 0.5 0
0.857143 0.5 0
0.75 0.625 0
0.857143 0.625 0
0.642857 0.625 0
0.75 0.625 0
0.642857 0.75 0
0.75 0.75 0
0.75 0.625 0
0.857143 0.625 0
0.75 0.75 0
0.857143 0.75 0
0.857143 0 0
0.964286 0 0
0.857143 0.125 0
0.964286 0.125 0
0.964286 0 0
1.07143 0 0
0.964286 0.125 0
1.07143 0.125 0
0.857143 0.125 0
0.964286 0.125 0
0.857143 0.25 0
0.964286 0.25 0
0.964286 0.125 0
1.07143 0.125 0
0.964286 0.25 0
1.07143 0.25 0
0.857143 0.25 0
0.964286 0.25 0
0.857143 0.375 0
0.964286 0.375 0
0.964286 0.25 0
1.07143 0.25 0
0.964286 0.375 0
1.07143 0.375 0
0.857143 0.375 0
0.964286 0.375 0
0.857143 0.5 0
0.964286 0.5 0
0.964286 0.375 0
1.07143 0.375 0
0.964286 0.5 0
1.07143 0.5 0
0.857143 0.5 0
0.964286 0.5 0
0.857143 0.625 0
0.964286 0.625 0
0.964286 0.5 0
1.07143 0.5 0
0.964286 0.625 0
1.07143 0.625 0
0.857143 0.625 0
0.964286 0.625 0
0.857143 0.75 0
0.964286 0.75 0
0.964286 0.625 0
1.07143 0.625 0
0.964286 0.75 0
1.07143 0.75 0
1.07143 0 0
1.17857 0 0
1.07143 0.125 0
1.17857 0.125 0
1.17857 0 0
1.28571 0 0
1.17857 0.125 0
1.28571 0.125 0
1.07143 0.125 0
1.17857 0.125 0
1.07143 0.25 0
1.17857 0.25 0
1.17857 0.125 0
1.28571 0.125 0
1.17857 0.25 0
1.28571 0.25 0
1.07143 0.25 0
1.17857 0.25 0
1.07143 0.375 0
1.17857 0.375 0
1.17857 0.25 0
1.28571 0.25 0
[...]
POINT_DATA 8784
VECTORS velocity double
0 0 0
0 0 0
0 0 0
0.0453724 -0.0429321 0
0 0 0
0.0453724 -0.0429321 0
0 0 0
-0.0834744 0.00724022 0
0 0 0
0 0 0
0.0453724 -0.0429321 0
0.042159 0.070153 0
0.0453724 -0.0429321 0
0.042159 0.070153 0
-0.0834744 0.00724022 0
-0.13997 0.0792198 0
0 0 0
0 0 0
0 0 0
0.190896 0.248288 0
0 0 0
0.190896 0.248288 0
0 0 0
0.463626 0.050902 0
0 0 0
0 0 0
0.190896 0.248288 0
-0.1397 0.317715 0
0.190896 0.248288 0
-0.1397 0.317715 0
0.463626 0.050902 0
-0.176921 0.225945 0
0.0394938 0.110159 0
0.350318 -0.0163693 0
0.334545 -0.12688 0
0.264905 -0.0860914 0
0.350318 -0.0163693 0
0.306553 -0.234094 0
0.264905 -0.0860914 0
0.0902031 0.0726882 0
0.334545 -0.12688 0
0.264905 -0.0860914 0
0.0704666 -0.0271846 0
0.0281118 -0.0368229 0
0.264905 -0.0860914 0
0.0902031 0.0726882 0
0.0281118 -0.0368229 0
0.00314284 0.291011 0
0.306553 -0.234094 0
0.261073 -0.274711 0
0.0902031 0.0726882 0
-0.211601 -0.217742 0
0.261073 -0.274711 0
0.188828 0.190879 0
-0.211601 -0.217742 0
-0.060531 0.0442945 0
0.0902031 0.0726882 0
-0.211601 -0.217742 0
0.00314284 0.291011 0
0.0962367 -0.161877 0
-0.211601 -0.217742 0
-0.060531 0.0442945 0
0.0962367 -0.161877 0
-0.0525664 0.0285729 0
0.302755 -0.348966 0
0.0547042 -0.0579653 0
0.3804 0.464971 0
-0.0690563 0.0885239 0
0.0547042 -0.0579653 0
0.0232106 -0.0989043 0
-0.0690563 0.0885239 0
0.0464776 -0.0171889 0
0.3804 0.464971 0
-0.0690563 0.0885239 0
0.617269 -0.567948 0
-0.146356 -0.0531071 0
-0.0690563 0.0885239 0
0.0464776 -0.0171889 0
-0.146356 -0.0531071 0
-0.0214419 -0.0495174 0
0.617269 -0.567948 0
-0.146356 -0.0531071 0
0.701168 0.52444 0
-0.160408 0.0484749 0
-0.146356 -0.0531071 0
-0.0214419 -0.0495174 0
-0.160408 0.0484749 0
-0.0342404 0.00108321 0
0.701168 0.52444 0
-0.160408 0.0484749 0
0.447709 -0.0963448 0
-0.0784768 0.107609 0
-0.160408 0.0484749 0
-0.0342404 0.00108321 0
-0.0784768 0.107609 0
-0.18877 0.0717784 0
0.140366 -0.0562619 0
-0.0262706 -0.054842 0
0.156095 0.00565635 0
-0.00733265 0.0304986 0
-0.0262706 -0.054842 0
0.0704666 -0.0271846 0
-0.00733265 0.0304986 0
0.0281118 -0.0368229 0
0.156095 0.00565635 0
-0.00733265 0.0304986 0
0.23001 0.0816386 0
0.0336677 0.194964 0
-0.00733265 0.0304986 0
0.0281118 -0.0368229 0
0.0336677 0.194964 0
0.00314284 0.291011 0
0.23001 0.0816386 0
0.0336677 0.194964 0
0.284854 0.0236296 0
-0.0355599 -0.131504 0
0.0336677 0.194964 0
0.00314284 0.291011 0
-0.0355599 -0.131504 0
0.0962367 -0.161877 0
0.284854 0.0236296 0
-0.0355599 -0.131504 0
0.291843 -0.00997443 0
-0.00557717 0.141607 0
-0.0355599 -0.131504 0
0.0962367 -0.161877 0
-0.00557717 0.141607 0
-0.0525664 0.0285729 0
0.616061 -0.191606 0
-0.334242 -0.163861 0
0.935019 -0.103943 0
-0.352638 0.201828 0
-0.334242 -0.163861 0
0.302755 -0.348966 0
-0.352638 0.201828 0
0.3804 0.464971 0
0.935019 -0.103943 0
-0.352638 0.201828 0
0.76845 0.534568 0
-0.584806 -0.239727 0
-0.352638 0.201828 0
0.3804 0.464971 0
-0.584806 -0.239727 0
0.617269 -0.567948 0
0.76845 0.534568 0
-0.584806 -0.239727 0
0.3443 -0.072777 0
-0.695096 0.139291 0
-0.584806 -0.239727 0
0.617269 -0.567948 0
-0.695096 0.139291 0
0.701168 0.52444 0
0.3443 -0.072777 0
-0.695096 0.139291 0
-0.257699 -0.404128 0
0.168434 -0.270554 0
-0.695096 0.139291 0
0.701168 0.52444 0
0.168434 -0.270554 0
0.447709 -0.0963448 0
0 0 0
-0.0177339 -0.00486866 0
0 0 0
0.193733 -0.198319 0
-0.0177339 -0.00486866 0
-0.0834744 0.00724022 0
0.193733 -0.198319 0
0.169455 0.297901 0
0 0 0
0.193733 -0.198319 0
0 0 0
-0.0424005 -0.363456 0
0.193733 -0.198319 0
0.169455 0.297901 0
-0.0424005 -0.363456 0
-0.0448487 0.432873 0
-0.0834744 0.00724022 0
-0.145588 0.0320014 0
0.169455 0.297901 0
0.139831 -0.131508 0
-0.145588 0.0320014 0
-0.13997 0.0792198 0
0.139831 -0.131508 0
0.28894 0.0636625 0
0.169455 0.297901 0
0.139831 -0.131508 0
-0.0448487 0.432873 0
-0.0218105 -0.254503 0
0.139831 -0.131508 0
0.28894 0.0636625 0
-0.0218105 -0.254503 0
-0.23965 0.227005 0
0 0 0
0 0 0
0.140082 0.0557063 0
0.0269616 0.0422956 0
0 0 0
0 0 0
0.0269616 0.0422956 0
-0.141877 0.146458 0
0.140082 0.0557063 0
0.0269616 0.0422956 0
-0.201666 -0.119007 0
0.0847776 -0.02419 0
0.0269616 0.0422956 0
-0.141877 0.146458 0
0.0847776 -0.02419 0
0.148777 0.381736 0
0 0 0
0 0 0
-0.141877 0.146458 0
-0.149037 -0.171147 0
0 0 0
0 0 0
-0.149037 -0.171147 0
0 0 0
-0.141877 0.146458 0
-0.149037 -0.171147 0
0.148777 0.381736 0
0.0317355 -0.282153 0
-0.149037 -0.171147 0
0 0 0
0.0317355 -0.282153 0
0 0 0
0.0232106 -0.0989043 0
0.471133 0.0585342 0
0.0464776 -0.0171889 0
0.578124 -0.0404215 0
0.471133 0.0585342 0
-0.428751 0.132525 0
0.578124 -0.0404215 0
-0.262676 0.156875 0
0.0464776 -0.0171889 0
0.578124 -0.0404215 0
-0.0214419 -0.0495174 0
0.600855 -0.0287354 0
0.578124 -0.0404215 0
-0.262676 0.156875 0
0.600855 -0.0287354 0
-0.137187 -0.00584826 0
-0.0214419 -0.0495174 0
0.600855 -0.0287354 0
-0.0342404 0.00108321 0
0.559737 -0.100645 0
0.600855 -0.0287354 0
-0.137187 -0.00584826 0
0.559737 -0.100645 0
-0.158656 -0.239337 0
-0.0342404 0.00108321 0
0.559737 -0.100645 0
-0.18877 0.0717784 0
0.56481 0.0553091 0
0.559737 -0.100645 0
-0.158656 -0.239337 0
0.56481 0.0553091 0
-0.217913 0.0942485 0
-0.18877 0.0717784 0
0.56481 0.0553091 0
-0.154464 0.0213303 0
0.572601 0.0765849 0
0.56481 0.0553091 0
-0.217913 0.0942485 0
0.572601 0.0765849 0
-0.213302 -0.0198486 0
-0.154464 0.0213303 0
0.572601 0.0765849 0
-0.144247 0.169077 0
0.47752 0.0379556 0
0.572601 0.0765849 0
-0.213302 -0.0198486 0
0.47752 0.0379556 0
-0.280256 -0.0515837 0
-0.144247 0.169077 0
0.47752 0.0379556 0
-0.0595076 -0.207077 0
0.536236 0.0662495 0
0.47752 0.0379556 0
-0.280256 -0.0515837 0
0.536236 0.0662495 0
-0.183176 0.303648 0
-0.0595076 -0.207077 0
0.536236 0.0662495 0
0.119336 0.00543794 0
0.461059 -0.0879944 0
0.536236 0.0662495 0
-0.183176 0.303648 0
0.461059 -0.0879944 0
-0.164095 -0.366129 0
0.119336 0.00543794 0
0.461059 -0.0879944 0
-0.159944 0.130842 0
0.525278 -0.077 0
0.461059 -0.0879944 0
-0.164095 -0.366129 0
0.525278 -0.077 0
-0.21875 0.17687 0
-0.159944 0.130842 0
0.525278 -0.077 0
-0.0648386 -0.181539 0
0.440097 0.0850151 0
0.525278 -0.077 0
-0.21875 0.17687 0
0.440097 0.0850151 0
-0.0544514 -0.0882915 0
-0.0648386 -0.181539 0
0.440097 0.0850151 0
0.282343 0.166068 0
0.357428 0.20158 0
0.440097 0.0850151 0
-0.0544514 -0.0882915 0
0.357428 0.20158 0
-0.155971 0.149092 0
0.282343 0.166068 0
0.357428 0.20158 0
0.419453 0.140024 0
0.0280096 -0.116267 0
0.357428 0.20158 0
-0.155971 0.149092 0
0.0280096 -0.116267 0
-0.0534363 -0.334003 0
0.419453 0.140024 0
0.0280096 -0.116267 0
0.801534 0.189161 0
-0.669388 0.0504223 0
0.0280096 -0.116267 0
-0.0534363 -0.334003 0
-0.669388 0.0504223 0
0.270963 -0.0974134 0
0.801534 0.189161 0
-0.669388 0.0504223 0
0.634946 -0.105576 0
-0.718208 -0.262928 0
-0.669388 0.0504223 0
0.270963 -0.0974134 0
-0.718208 -0.262928 0
0.516286 0.133187 0
-0.137187 -0.00584826 0
0.322174 -0.0213247 0
-0.158656 -0.239337 0
0.446483 -0.0494856 0
0.322174 -0.0213247 0
0.23001 0.0816386 0
0.446483 -0.0494856 0
0.284854 0.0236296 0
-0.158656 -0.239337 0
0.446483 -0.0494856 0
-0.217913 0.0942485 0
0.534666 -0.00826432 0
0.446483 -0.0494856 0
0.284854 0.0236296 0
0.534666 -0.00826432 0
0.291843 -0.00997443 0
-0.217913 0.0942485 0
0.534666 -0.00826432 0
-0.213302 -0.0198486 0
0.435096 0.0609828 0
0.534666 -0.00826432 0
0.291843 -0.00997443 0
0.435096 0.0609828 0
0.361314 -0.0443134 0
-0.213302 -0.0198486 0
0.435096 0.0609828 0
-0.280256 -0.0515837 0
0.449876 -0.124922 0
0.435096 0.0609828 0
0.361314 -0.0443134 0
0.449876 -0.124922 0
0.36111 -0.0626178 0
-0.280256 -0.0515837 0
0.449876 -0.124922 0
-0.183176 0.303648 0
0.255671 0.331726 0
0.449876 -0.124922 0
0.36111 -0.0626178 0
0.255671 0.331726 0
0.293948 -0.0783125 0
-0.183176 0.303648 0
0.255671 0.331726 0
-0.164095 -0.366129 0
0.355537 -0.251681 0
0.255671 0.331726 0
0.293948 -0.0783125 0
0.355537 -0.251681 0
0.358276 0.207532 0
-0.164095 -0.366129 0
0.355537 -0.251681 0
-0.21875 0.17687 0
0.584456 0.33413 0
0.355537 -0.251681 0
0.358276 0.207532 0
0.584456 0.33413 0
0.291612 -0.0143997 0
-0.21875 0.17687 0
0.584456 0.33413 0
-0.0544514 -0.0882915 0
0.565868 -0.0145074 0
0.584456 0.33413 0
0.291612 -0.0143997 0
0.565868 -0.0145074 0
0.145121 0.130002 0
-0.0544514 -0.0882915 0
0.565868 -0.0145074 0
-0.155971 0.149092 0
0.599581 -0.0142381 0
0.565868 -0.0145074 0
0.145121 0.130002 0
0.599581 -0.0142381 0
0.190363 -0.204033 0
-0.155971 0.149092 0
0.599581 -0.0142381 0
-0.0534363 -0.334003 0
0.666844 0.0444948 0
0.599581 -0.0142381 0
0.190363 -0.204033 0
0.666844 0.0444948 0
-0.272384 -0.332325 0
-0.0534363 -0.334003 0
0.666844 0.0444948 0
0.270963 -0.0974134 0
0.803875 0.121994 0
0.666844 0.0444948 0
-0.272384 -0.332325 0
0.803875 0.121994 0
-0.198577 0.616366 0
0.270963 -0.0974134 0
0.803875 0.121994 0
0.516286 0.133187 0
0.707305 0.0720105 0
0.803875 0.121994 0
-0.198577 0.616366 0
0.707305 0.0720105 0
0.0484196 -0.280178 0
0 0 0
-0.281547 0.0686315 0
0 0 0
-0.104528 0.22783 0
-0.281547 0.0686315 0
0.354222 0.144133 0
-0.104528 0.22783 0
0.2943 0.393574 0
0 0 0
-0.104528 0.22783 0
0 0 0
0.0878866 -0.0244588 0
-0.104528 0.22783 0
0.2943 0.393574 0
0.0878866 -0.0244588 0
0.135409 -0.264408 0
0 0 0
0.0878866 -0.0244588 0
0 0 0
0.0696326 -0.00645612 0
0.0878866 -0.0244588 0
0.135409 -0.264408 0
0.0696326 -0.00645612 0
0.0506974 -0.025998 0
0 0 0
0.0696326 -0.00645612 0
0 0 0
0 0 0
0.0696326 -0.00645612 0
0.0506974 -0.025998 0
0 0 0
0 0 0
0 0 0
0 0 0
-0.0421642 0.161641 0
-0.27609 -0.199871 0
0 0 0
0 0 0
-0.27609 -0.199871 0
0.0836945 -0.433198 0
-0.0421642 0.161641 0
-0.27609 -0.199871 0
-0.1397 0.317715 0
-0.38669 0.37436 0
-0.27609 -0.199871 0
0.0836945 -0.433198 0
-0.38669 0.37436 0
-0.0478589 0.335687 0
-0.1397 0.317715 0
-0.38669 0.37436 0
-0.204262 0.2979 0
-0.331669 0.24411 0
-0.38669 0.37436 0
-0.0478589 0.335687 0
-0.331669 0.24411 0
-0.111378 0.236564 0
-0.204262 0.2979 0
-0.331669 0.24411 0
-0.176921 0.225945 0
-0.465196 0.175028 0
-0.331669 0.24411 0
-0.111378 0.236564 0
-0.465196 0.175028 0
-0.185124 0.0258736 0
0 0 0
0 0 0
0.0067606 0.0198856 0
0.025338 -0.0401253 0
0 0 0
0 0 0
0.025338 -0.0401253 0
-0.00421477 0.0872284 0
0.0067606 0.0198856 0
0.025338 -0.0401253 0
0.042159 0.070153 0
-0.0632068 -0.00563593 0
0.025338 -0.0401253 0
-0.00421477 0.0872284 0
-0.0632068 -0.00563593 0
-0.133813 0.169311 0
0.042159 0.070153 0
-0.0632068 -0.00563593 0
-0.0363483 0.101303 0
-0.12021 0.166385 0
-0.0632068 -0.00563593 0
-0.133813 0.169311 0
-0.12021 0.166385 0
0.00199097 -0.0664402 0
-0.0363483 0.101303 0
-0.12021 0.166385 0
-0.13997 0.0792198 0
-0.00543395 0.155564 0
-0.12021 0.166385 0
0.00199097 -0.0664402 0
-0.00543395 0.155564 0
0.116385 -0.294825 0
-0.13997 0.0792198 0
-0.00543395 0.155564 0
0.28894 0.0636625 0
0.0992811 0.224795 0
-0.00543395 0.155564 0
0.116385 -0.294825 0
0.0992811 0.224795 0
-0.117977 -0.255714 0
0.28894 0.0636625 0
0.0992811 0.224795 0
-0.23965 0.227005 0
-0.0661494 0.0689651 0
0.0992811 0.224795 0
-0.117977 -0.255714 0
-0.0661494 0.0689651 0
0.12379 -0.0611069 0
0 0 0
0 0 0
-0.00421477 0.0872284 0
-0.06683 0.00341727 0
0 0 0
0 0 0
-0.06683 0.00341727 0
-0.00871078 -0.0569346 0
-0.00421477 0.0872284 0
-0.06683 0.00341727 0
-0.133813 0.169311 0
-0.0261472 -0.129237 0
-0.06683 0.00341727 0
-0.00871078 -0.0569346 0
-0.0261472 -0.129237 0
-0.0613857 0.0347893 0
-0.133813 0.169311 0
-0.0261472 -0.129237 0
0.00199097 -0.0664402 0
0.0543096 -0.0773404 0
-0.0261472 -0.129237 0
-0.0613857 0.0347893 0
0.0543096 -0.0773404 0
-0.323755 0.448572 0
0.00199097 -0.0664402 0
0.0543096 -0.0773404 0
0.116385 -0.294825 0
0.00333772 0.257901 0
0.0543096 -0.0773404 0
-0.323755 0.448572 0
0.00333772 0.257901 0
-0.0986592 0.702855 0
0.116385 -0.294825 0
0.00333772 0.257901 0
-0.117977 -0.255714 0
0.00735757 0.201936 0
0.00333772 0.257901 0
-0.0986592 0.702855 0
0.00735757 0.201936 0
0.31243 0.556254 0
-0.117977 -0.255714 0
0.00735757 0.201936 0
0.12379 -0.0611069 0
-0.104474 0.111405 0
0.00735757 0.201936 0
0.31243 0.556254 0
-0.104474 0.111405 0
0.0394938 0.110159 0
0 0 0
0 0 0
-0.00871078 -0.0569346 0
0.0663276 -0.0329602 0
0 0 0
0 0 0
0.0663276 -0.0329602 0
0.0542026 0.0563814 0
-0.00871078 -0.0569346 0
0.0663276 -0.0329602 0
-0.0613857 0.0347893 0
-0.307619 0.0418313 0
0.0663276 -0.0329602 0
0.0542026 0.0563814 0
-0.307619 0.0418313 0
-0.280729 -0.0269734 0
-0.0613857 0.0347893 0
-0.307619 0.0418313 0
-0.323755 0.448572 0
-0.546819 0.183594 0
-0.307619 0.0418313 0
-0.280729 -0.0269734 0
-0.546819 0.183594 0
-0.454624 -0.294758 0
-0.323755 0.448572 0
-0.546819 0.183594 0
-0.0986592 0.702855 0
-0.125443 0.249013 0
-0.546819 0.183594 0
-0.454624 -0.294758 0
-0.125443 0.249013 0
-0.0930592 -0.530395 0
-0.0986592 0.702855 0
-0.125443 0.249013 0
0.31243 0.556254 0
0.534288 0.145232 0
-0.125443 0.249013 0
-0.0930592 -0.530395 0
0.534288 0.145232 0
0.559331 -0.479308 0
0.31243 0.556254 0
0.534288 0.145232 0
0.0394938 0.110159 0
0.350318 -0.0163693 0
0.534288 0.145232 0
0.559331 -0.479308 0
0.350318 -0.0163693 0
0.306553 -0.234094 0
0 0 0
0 0 0
0.0542026 0.0563814 0
0.00853637 -0.0114793 0
0 0 0
0 0 0
0.00853637 -0.0114793 0
-0.0728559 0.0965508 0
0.0542026 0.0563814 0
0.00853637 -0.0114793 0
-0.280729 -0.0269734 0
-0.0557586 -0.132048 0
0.00853637 -0.0114793 0
-0.0728559 0.0965508 0
-0.0557586 -0.132048 0
0.364847 -0.221135 0
-0.280729 -0.0269734 0
-0.0557586 -0.132048 0
-0.454624 -0.294758 0
-0.125012 -0.495228 0
-0.0557586 -0.132048 0
0.364847 -0.221135 0
-0.125012 -0.495228 0
-0.163501 -0.302855 0
-0.454624 -0.294758 0
-0.125012 -0.495228 0
-0.0930592 -0.530395 0
-0.0701776 -0.666518 0
-0.125012 -0.495228 0
-0.163501 -0.302855 0
-0.0701776 -0.666518 0
0.00295766 -0.170248 0
-0.0930592 -0.530395 0
-0.0701776 -0.666518 0
0.559331 -0.479308 0
0.274559 -0.404799 0
-0.0701776 -0.666518 0
0.00295766 -0.170248 0
0.274559 -0.404799 0
-0.0445801 -0.155237 0
0.559331 -0.479308 0
0.274559 -0.404799 0
0.306553 -0.234094 0
0.261073 -0.274711 0
0.274559 -0.404799 0
-0.0445801 -0.155237 0
0.261073 -0.274711 0
0.188828 0.190879 0
0 0 0
0 0 0
-0.0728559 0.0965508 0
-0.079602 -0.0232462 0
0 0 0
0 0 0
-0.079602 -0.0232462 0
0.309397 -0.486141 0
-0.0728559 0.0965508 0
-0.079602 -0.0232462 0
0.364847 -0.221135 0
0.406593 0.289342 0
-0.079602 -0.0232462 0
0.309397 -0.486141 0
0.406593 0.289342 0
-0.358465 -0.373302 0
0.364847 -0.221135 0
0.406593 0.289342 0
-0.163501 -0.302855 0
-0.18388 0.388197 0
0.406593 0.289342 0
-0.358465 -0.373302 0
-0.18388 0.388197 0
-0.0224315 0.262725 0
-0.163501 -0.302855 0
-0.18388 0.388197 0
0.00295766 -0.170248 0
0.122246 0.0850385 0
-0.18388 0.388197 0
-0.0224315 0.262725 0
0.122246 0.0850385 0
0.345601 0.185066 0
0 0 0
0 0 0
0.309397 -0.486141 0
0.450784 0.346812 0
0 0 0
0 0 0
0.450784 0.346812 0
0.0861752 0.0717815 0
0.309397 -0.486141 0
0.450784 0.346812 0
-0.358465 -0.373302 0
-0.37082 0.164777 0
0.450784 0.346812 0
0.0861752 0.0717815 0
-0.37082 0.164777 0
-0.0303935 0.215049 0
-0.358465 -0.373302 0
-0.37082 0.164777 0
-0.0224315 0.262725 0
-0.00585256 -0.464851 0
-0.37082 0.164777 0
-0.0303935 0.215049 0
-0.00585256 -0.464851 0
0.116894 0.360574 0
-0.0224315 0.262725 0
-0.00585256 -0.464851 0
0.345601 0.185066 0
0.162091 -0.201581 0
-0.00585256 -0.464851 0
0.116894 0.360574 0
0.162091 -0.201581 0
-0.0891713 0.320309 0
0 0 0
0 0 0
0.0861752 0.0717815 0
0.0780603 -0.0245676 0
0 0 0
0 0 0
0.0780603 -0.0245676 0
-0.0173271 0.122899 0
0.0861752 0.0717815 0
0.0780603 -0.0245676 0
-0.0303935 0.215049 0
-0.0979504 -0.0626239 0
0.0780603 -0.0245676 0
-0.0173271 0.122899 0
-0.0979504 -0.0626239 0
-0.0141399 0.148834 0
-0.0303935 0.215049 0
-0.0979504 -0.0626239 0
0.116894 0.360574 0
-0.119601 0.161853 0
-0.0979504 -0.0626239 0
-0.0141399 0.148834 0
-0.119601 0.161853 0
-0.426715 0.160492 0
0.116894 0.360574 0
-0.119601 0.161853 0
-0.0891713 0.320309 0
-0.0304158 0.369874 0
-0.119601 0.161853 0
-0.426715 0.160492 0
-0.0304158 0.369874 0
0.102087 0.249265 0
0 0 0
0 0 0
-0.0173271 0.122899 0
-0.0162339 -0.112172 0
0 0 0
0 0 0
-0.0162339 -0.112172 0
0.33365 -0.309645 0
-0.0173271 0.122899 0
-0.0162339 -0.112172 0
-0.0141399 0.148834 0
0.0198987 -0.165469 0
-0.0162339 -0.112172 0
0.33365 -0.309645 0
0.0198987 -0.165469 0
-0.100429 -0.531867 0
-0.0141399 0.148834 0
0.0198987 -0.165469 0
-0.426715 0.160492 0
-0.389521 -0.267222 0
0.0198987 -0.165469 0
-0.100429 -0.531867 0
-0.389521 -0.267222 0
-0.395058 -0.306956 0
-0.426715 0.160492 0
-0.389521 -0.267222 0
0.102087 0.249265 0
0.204339 -0.5362 0
-0.389521 -0.267222 0
-0.395058 -0.306956 0
0.204339 -0.5362 0
0.297566 -0.0470112 0
0 0 0
0.246253 -0.000890728 0
0 0 0
0.277451 0.0450406 0
0.246253 -0.000890728 0
0.463626 0.050902 0
0.277451 0.0450406 0
0.342049 -0.105699 0
0 0 0
0.277451 0.0450406 0
0 0 0
0.171322 -0.198591 0
0.277451 0.0450406 0
0.342049 -0.105699 0
0.171322 -0.198591 0
0.237485 -0.295196 0
0 0 0
0.171322 -0.198591 0
0 0 0
0.204294 0.23523 0
0.171322 -0.198591 0
0.237485 -0.295196 0
0.204294 0.23523 0
0.0688477 0.116791 0
0 0 0
0.204294 0.23523 0
0 0 0
0.466734 0.109162 0
0.204294 0.23523 0
0.0688477 0.116791 0
0.466734 0.109162 0
-0.557117 -0.112339 0
0 0 0
0.466734 0.109162 0
0 0 0
0.478315 -0.0955418 0
0.466734 0.109162 0
-0.557117 -0.112339 0
0.478315 -0.0955418 0
-0.729218 -0.0700788 0
0 0 0
0.478315 -0.0955418 0
0 0 0
0.530114 0.0927225 0
0.478315 -0.0955418 0
-0.729218 -0.0700788 0
0.530114 0.0927225 0
-0.579073 0.277167 0
0 0 0
0.530114 0.0927225 0
0 0 0
0.306277 -0.356392 0
0.530114 0.0927225 0
-0.579073 0.277167 0
0.306277 -0.356392 0
-0.0165099 -0.182739 0
0 0 0
0.306277 -0.356392 0
0 0 0
-0.097825 -0.0639034 0
0.306277 -0.356392 0
-0.0165099 -0.182739 0
-0.097825 -0.0639034 0
0.410354 -0.175738 0
0 0 0
-0.097825 -0.0639034 0
0 0 0
-0.193059 -0.0626752 0
-0.097825 -0.0639034 0
0.410354 -0.175738 0
-0.193059 -0.0626752 0
0.471466 0.050977 0
0 0 0
-0.193059 -0.0626752 0
0 0 0
0.198906 0.514903 0
-0.193059 -0.0626752 0
0.471466 0.050977 0
0.198906 0.514903 0
-0.0268966 0.325522 0
0 0 0
0.198906 0.514903 0
0 0 0
0.480134 -0.192812 0
0.198906 0.514903 0
-0.0268966 0.325522 0
0.480134 -0.192812 0
-0.349184 -0.0203977 0
0 0 0
0.480134 -0.192812 0
0 0 0
0.0106188 -0.346925 0
0.480134 -0.192812 0
-0.349184 -0.0203977 0
0.0106188 -0.346925 0
0.0658193 -0.558335 0
0 0 0
0.0106188 -0.346925 0
0 0 0
0.321178 0.695464 0
0.0106188 -0.346925 0
0.0658193 -0.558335 0
0.321178 0.695464 0
-0.487279 0.64306 0
0 0 0
0.321178 0.695464 0
0 0 0
0.471642 -0.529977 0
0.321178 0.695464 0
-0.487279 0.64306 0
0.471642 -0.529977 0
-0.632463 -0.468651 0
0 0 0
0.471642 -0.529977 0
0 0 0
0.0742975 0.0772499 0
0.471642 -0.529977 0
-0.632463 -0.468651 0
0.0742975 0.0772499 0
-0.100788 0.214413 0
0 0 0
0.0742975 0.0772499 0
0 0 0
0.20677 0.0419625 0
0.0742975 0.0772499 0
-0.100788 0.214413 0
0.20677 0.0419625 0
0.0812101 0.297744 0
0.463626 0.050902 0
0.145754 0.143709 0
0.342049 -0.105699 0
0.195794 -0.316827 0
0.145754 0.143709 0
-0.176921 0.225945 0
0.195794 -0.316827 0
-0.199721 -0.360955 0
0.342049 -0.105699 0
0.195794 -0.316827 0
0.237485 -0.295196 0
0.0598575 -0.347297 0
0.195794 -0.316827 0
-0.199721 -0.360955 0
0.0598575 -0.347297 0
-0.0645812 -0.372735 0
0.237485 -0.295196 0
0.0598575 -0.347297 0
0.0688477 0.116791 0
-0.361957 -0.583006 0
0.0598575 -0.347297 0
-0.0645812 -0.372735 0
-0.361957 -0.583006 0
0.00356102 -1.04153 0
0.0688477 0.116791 0
-0.361957 -0.583006 0
-0.557117 -0.112339 0
-0.80754 -0.620035 0
-0.361957 -0.583006 0
0.00356102 -1.04153 0
-0.80754 -0.620035 0
-0.148985 -0.851944 0
-0.557117 -0.112339 0
-0.80754 -0.620035 0
-0.729218 -0.0700788 0
-0.863689 0.105701 0
-0.80754 -0.620035 0
-0.148985 -0.851944 0
-0.863689 0.105701 0
-0.188538 0.27591 0
-0.729218 -0.0700788 0
-0.863689 0.105701 0
-0.579073 0.277167 0
-0.676718 0.505466 0
-0.863689 0.105701 0
-0.188538 0.27591 0
-0.676718 0.505466 0
-0.0779172 0.682072 0
-0.579073 0.277167 0
-0.676718 0.505466 0
-0.0165099 -0.182739 0
-0.338051 0.60698 0
-0.676718 0.505466 0
-0.0779172 0.682072 0
-0.338051 0.60698 0
-0.0101624 0.893427 0
-0.0165099 -0.182739 0
-0.338051 0.60698 0
0.410354 -0.175738 0