# vtk DataFile Version 3.0
#This file was generated by the deal.II library on 2026/3/26 at 11:17:18
ASCII
DATASET UNSTRUCTURED_GRID

POINTS 3648 double
0 0 0
0.214286 0 0
0 0.25 0
0.214286 0.25 0
0 0.25 0
0.214286 0.25 0
0 0.5 0
0.214286 0.5 0
0.214286 0 0
0.428571 0 0
0.214286 0.25 0
0.428571 0.25 0
0.214286 0.25 0
0.428571 0.25 0
0.214286 0.5 0
0.428571 0.5 0
0.428571 0 0
0.642857 0 0
0.428571 0.25 0
0.642857 0.25 0
0.428571 0.25 0
0.642857 0.25 0
0.428571 0.5 0
0.642857 0.5 0
0.428571 0.5 0
0.642857 0.5 0
0.428571 0.75 0
0.642857 0.75 0
0.642857 0 0
0.857143 0 0
0.642857 0.25 0
0.857143 0.25 0
0.642857 0.25 0
0.857143 0.25 0
0.642857 0.5 0
0.857143 0.5 0
0.642857 0.5 0
0.857143 0.5 0
0.642857 0.75 0
0.857143 0.75 0
0.857143 0 0
1.07143 0 0
0.857143 0.25 0
1.07143 0.25 0
0.857143 0.25 0
1.07143 0.25 0
0.857143 0.5 0
1.07143 0.5 0
0.857143 0.5 0
1.07143 0.5 0
0.857143 0.75 0
1.07143 0.75 0
1.07143 0 0
1.28571 0 0
1.07143 0.25 0
1.28571 0.25 0
1.07143 0.25 0
1.28571 0.25 0
1.07143 0.5 0
1.28571 0.5 0
1.07143 0.5 0
1.28571 0.5 0
1.07143 0.75 0
1.28571 0.75 0
1.28571 0 0
1.5 0 0
1.28571 0.25 0
1.5 0.25 0
1.28571 0.25 0
1.5 0.25 0
1.28571 0.5 0
1.5 0.5 0
1.5 0 0
1.71429 0 0
1.5 0.25 0
1.71429 0.25 0
1.5 0.25 0
1.71429 0.25 0
1.5 0.5 0
1.71429 0.5 0
1.71429 0 0
1.92857 0 0
1.71429 0.25 0
1.92857 0.25 0
1.71429 0.25 0
1.92857 0.25 0
1.71429 0.5 0
1.92857 0.5 0
1.92857 0 0
2.14286 0 0
1.92857 0.25 0
2.14286 0.25 0
1.92857 0.25 0
2.14286 0.25 0
1.92857 0.5 0
2.14286 0.5 0
0 3 0
0 2.75 0
0.214286 3 0
0.214286 2.75 0
0.214286 3 0
0.214286 2.75 0
0.428571 3 0
0.428571 2.75 0
0.428571 3 0
0.428571 2.75 0
0.642857 3 0
0.642857 2.75 0
0.642857 3 0
0.642857 2.75 0
0.857143 3 0
0.857143 2.75 0
0.857143 3 0
0.857143 2.75 0
1.07143 3 0
1.07143 2.75 0
1.07143 3 0
1.07143 2.75 0
1.28571 3 0
1.28571 2.75 0
1.28571 3 0
1.28571 2.75 0
1.5 3 0
1.5 2.75 0
1.5 3 0
1.5 2.75 0
1.71429 3 0
1.71429 2.75 0
1.71429 3 0
1.71429 2.75 0
1.92857 3 0
1.92857 2.75 0
1.92857 3 0
1.92857 2.75 0
2.14286 3 0
2.14286 2.75 0
0 2.75 0
0 2.5 0
0.214286 2.75 0
0.214286 2.5 0
0.214286 2.75 0
0.214286 2.5 0
0.428571 2.75 0
0.428571 2.5 0
0.428571 2.75 0
0.428571 2.5 0
0.642857 2.75 0
0.642857 2.5 0
0.642857 2.75 0
0.642857 2.5 0
0.857143 2.75 0
0.857143 2.5 0
0.857143 2.75 0
0.857143 2.5 0
1.07143 2.75 0
1.07143 2.5 0
1.07143 2.75 0
1.07143 2.5 0
1.28571 2.75 0
1.28571 2.5 0
1.28571 2.75 0
1.28571 2.5 0
1.5 2.75 0
1.5 2.5 0
1.5 2.75 0
1.5 2.5 0
1.71429 2.75 0
1.71429 2.5 0
1.71429 2.75 0
1.71429 2.5 0
1.92857 2.75 0
1.92857 2.5 0
1.92857 2.75 0
1.92857 2.5 0
2.14286 2.75 0
2.14286 2.5 0
0.428571 2.5 0
0.428571 2.25 0
0.642857 2.5 0
0.642857 2.25 0
0.642857 2.5 0
0.642857 2.25 0
0.857143 2.5 0
0.857143 2.25 0
0.857143 2.5 0
0.857143 2.25 0
1.07143 2.5 0
1.07143 2.25 0
1.07143 2.5 0
1.07143 2.25 0
1.28571 2.5 0
1.28571 2.25 0
0.214286 0.75 0
0.321429 0.75 0
0.214286 0.875 0
0.321429 0.875 0
0.321429 0.75 0
0.428571 0.75 0
0.321429 0.875 0
0.428571 0.875 0
0.214286 0.875 0
0.321429 0.875 0
0.214286 1 0
0.321429 1 0
0.321429 0.875 0
0.428571 0.875 0
0.321429 1 0
0.428571 1 0
0.428571 0.75 0
0.535714 0.75 0
0.428571 0.875 0
0.535714 0.875 0
0.535714 0.75 0
0.642857 0.75 0
0.535714 0.875 0
0.642857 0.875 0
0.428571 0.875 0
0.535714 0.875 0
0.428571 1 0
0.535714 1 0
0.535714 0.875 0
0.642857 0.875 0
0.535714 1 0
0.642857 1 0
0.642857 0.75 0
0.75 0.75 0
0.642857 0.875 0
0.75 0.875 0
0.75 0.75 0
0.857143 0.75 0
0.75 0.875 0
0.857143 0.875 0
0.642857 0.875 0
0.75 0.875 0
0.642857 1 0
0.75 1 0
0.75 0.875 0
0.857143 0.875 0
0.75 1 0
0.857143 1 0
0.857143 0.75 0
0.964286 0.75 0
0.857143 0.875 0
0.964286 0.875 0
0.964286 0.75 0
1.07143 0.75 0
0.964286 0.875 0
1.07143 0.875 0
0.857143 0.875 0
0.964286 0.875 0
0.857143 1 0
0.964286 1 0
0.964286 0.875 0
1.07143 0.875 0
0.964286 1 0
1.07143 1 0
1.07143 0.75 0
1.17857 0.75 0
1.07143 0.875 0
1.17857 0.875 0
1.17857 0.75 0
1.28571 0.75 0
1.17857 0.875 0
1.28571 0.875 0
1.07143 0.875 0
1.17857 0.875 0
1.07143 1 0
1.17857 1 0
1.17857 0.875 0
1.28571 0.875 0
1.17857 1 0
1.28571 1 0
0.214286 2 0
0.214286 1.875 0
0.321429 2 0
0.321429 1.875 0
0.214286 1.875 0
0.214286 1.75 0
0.321429 1.875 0
0.321429 1.75 0
0.321429 2 0
0.321429 1.875 0
0.428571 2 0
0.428571 1.875 0
0.321429 1.875 0
0.321429 1.75 0
0.428571 1.875 0
0.428571 1.75 0
0.428571 2 0
0.428571 1.875 0
0.535714 2 0
0.535714 1.875 0
0.428571 1.875 0
0.428571 1.75 0
0.535714 1.875 0
0.535714 1.75 0
0.535714 2 0
0.535714 1.875 0
0.642857 2 0
0.642857 1.875 0
0.535714 1.875 0
0.535714 1.75 0
0.642857 1.875 0
0.642857 1.75 0
0.642857 2 0
0.642857 1.875 0
0.75 2 0
0.75 1.875 0
0.642857 1.875 0
0.642857 1.75 0
0.75 1.875 0
0.75 1.75 0
0.75 2 0
0.75 1.875 0
0.857143 2 0
0.857143 1.875 0
0.75 1.875 0
0.75 1.75 0
0.857143 1.875 0
0.857143 1.75 0
0.857143 2 0
0.857143 1.875 0
0.964286 2 0
0.964286 1.875 0
0.857143 1.875 0
0.857143 1.75 0
0.964286 1.875 0
0.964286 1.75 0
0.964286 2 0
0.964286 1.875 0
1.07143 2 0
1.07143 1.875 0
0.964286 1.875 0
0.964286 1.75 0
1.07143 1.875 0
1.07143 1.75 0
1.07143 2 0
1.07143 1.875 0
1.17857 2 0
1.17857 1.875 0
1.07143 1.875 0
1.07143 1.75 0
1.17857 1.875 0
1.17857 1.75 0
1.17857 2 0
1.17857 1.875 0
1.28571 2 0
1.28571 1.875 0
1.17857 1.875 0
1.17857 1.75 0
1.28571 1.875 0
1.28571 1.75 0
0.214286 1.25 0
0.214286 1.125 0
0.321429 1.25 0
0.321429 1.125 0
0.214286 1.125 0
0.214286 1 0
0.321429 1.125 0
0.321429 1 0
0.321429 1.25 0
0.321429 1.125 0
0.428571 1.25 0
0.428571 1.125 0
0.321429 1.125 0
0.321429 1 0
0.428571 1.125 0
0.428571 1 0
0.428571 1.25 0
0.428571 1.125 0
0.535714 1.25 0
0.535714 1.125 0
0.428571 1.125 0
0.428571 1 0
0.535714 1.125 0
0.535714 1 0
0.535714 1.25 0
0.535714 1.125 0
0.642857 1.25 0
0.642857 1.125 0
0.535714 1.125 0
0.535714 1 0
0.642857 1.125 0
0.642857 1 0
0.642857 1.25 0
0.642857 1.125 0
0.75 1.25 0
0.75 1.125 0
0.642857 1.125 0
0.642857 1 0
0.75 1.125 0
0.75 1 0
0.75 1.25 0
0.75 1.125 0
0.857143 1.25 0
0.857143 1.125 0
0.75 1.125 0
0.75 1 0
0.857143 1.125 0
0.857143 1 0
0.857143 1.25 0
0.857143 1.125 0
0.964286 1.25 0
0.964286 1.125 0
0.857143 1.125 0
0.857143 1 0
0.964286 1.125 0
0.964286 1 0
0.964286 1.25 0
0.964286 1.125 0
1.07143 1.25 0
1.07143 1.125 0
0.964286 1.125 0
0.964286 1 0
1.07143 1.125 0
1.07143 1 0
1.07143 1.25 0
1.07143 1.125 0
1.17857 1.25 0
1.17857 1.125 0
1.07143 1.125 0
1.07143 1 0
1.17857 1.125 0
1.17857 1 0
1.17857 1.25 0
1.17857 1.125 0
1.28571 1.25 0
1.28571 1.125 0
1.17857 1.125 0
1.17857 1 0
1.28571 1.125 0
1.28571 1 0
0.214286 2.25 0
0.214286 2.125 0
0.321429 2.25 0
0.321429 2.125 0
0.214286 2.125 0
0.214286 2 0
0.321429 2.125 0
0.321429 2 0
0.321429 2.25 0
0.321429 2.125 0
0.428571 2.25 0
0.428571 2.125 0
0.321429 2.125 0
0.321429 2 0
0.428571 2.125 0
0.428571 2 0
0.428571 2.25 0
0.428571 2.125 0
0.535714 2.25 0
0.535714 2.125 0
0.428571 2.125 0
0.428571 2 0
0.535714 2.125 0
0.535714 2 0
0.535714 2.25 0
0.535714 2.125 0
0.642857 2.25 0
0.642857 2.125 0
0.535714 2.125 0
0.535714 2 0
0.642857 2.125 0
0.642857 2 0
0.642857 2.25 0
0.642857 2.125 0
0.75 2.25 0
0.75 2.125 0
0.642857 2.125 0
0.642857 2 0
0.75 2.125 0
0.75 2 0
0.75 2.25 0
0.75 2.125 0
0.857143 2.25 0
0.857143 2.125 0
0.75 2.125 0
0.75 2 0
0.857143 2.125 0
0.857143 2 0
0.857143 2.25 0
0.857143 2.125 0
0.964286 2.25 0
0.964286 2.125 0
0.857143 2.125 0
0.857143 2 0
0.964286 2.125 0
0.964286 2 0
0.964286 2.25 0
0.964286 2.125 0
1.07143 2.25 0
1.07143 2.125 0
0.964286 2.125 0
0.964286 2 0
1.07143 2.125 0
1.07143 2 0
1.07143 2.25 0
1.07143 2.125 0
1.17857 2.25 0
1.17857 2.125 0
1.07143 2.125 0
1.07143 2 0
1.17857 2.125 0
1.17857 2 0
1.17857 2.25 0
1.17857 2.125 0
1.28571 2.25 0
1.28571 2.125 0
1.17857 2.125 0
1.17857 2 0
1.28571 2.125 0
1.28571 2 0
0 0.5 0
0.107143 0.5 0
0 0.625 0
0.107143 0.625 0
0.107143 0.5 0
0.214286 0.5 0
0.107143 0.625 0
0.214286 0.625 0
0 0.625 0
0.107143 0.625 0
0 0.75 0
0.107143 0.75 0
0.107143 0.625 0
0.214286 0.625 0
0.107143 0.75 0
0.214286 0.75 0
0.214286 0.5 0
0.321429 0.5 0
0.214286 0.625 0
0.321429 0.625 0
0.321429 0.5 0
0.428571 0.5 0
0.321429 0.625 0
0.428571 0.625 0
0.214286 0.625 0
0.321429 0.625 0
0.214286 0.75 0
0.321429 0.75 0
0.321429 0.625 0
0.428571 0.625 0
0.321429 0.75 0
0.428571 0.75 0
1.28571 0.5 0
1.39286 0.5 0
1.28571 0.625 0
1.39286 0.625 0
1.39286 0.5 0
1.5 0.5 0
1.39286 0.625 0
1.5 0.625 0
1.28571 0.625 0
1.39286 0.625 0
1.28571 0.75 0
1.39286 0.75 0
1.39286 0.625 0
1.5 0.625 0
1.39286 0.75 0
1.5 0.75 0
1.28571 0.75 0
1.39286 0.75 0
1.28571 0.875 0
1.39286 0.875 0
1.39286 0.75 0
1.5 0.75 0
1.39286 0.875 0
1.5 0.875 0
1.28571 0.875 0
1.39286 0.875 0
1.28571 1 0
1.39286 1 0
1.39286 0.875 0
1.5 0.875 0
1.39286 1 0
1.5 1 0
1.5 0.5 0
1.60714 0.5 0
1.5 0.625 0
1.60714 0.625 0
1.60714 0.5 0
1.71429 0.5 0
1.60714 0.625 0
1.71429 0.625 0
1.5 0.625 0
1.60714 0.625 0
1.5 0.75 0
1.60714 0.75 0
1.60714 0.625 0
1.71429 0.625 0
1.60714 0.75 0
1.71429 0.75 0
1.71429 0.5 0
1.82143 0.5 0
1.71429 0.625 0
1.82143 0.625 0
1.82143 0.5 0
1.92857 0.5 0
1.82143 0.625 0
1.92857 0.625 0
1.71429 0.625 0
1.82143 0.625 0
1.71429 0.75 0
1.82143 0.75 0
1.82143 0.625 0
1.92857 0.625 0
1.82143 0.75 0
1.92857 0.75 0
1.92857 0.5 0
2.03571 0.5 0
1.92857 0.625 0
2.03571 0.625 0
2.03571 0.5 0
2.14286 0.5 0
2.03571 0.625 0
2.14286 0.625 0
1.92857 0.625 0
2.03571 0.625 0
1.92857 0.75 0
2.03571 0.75 0
2.03571 0.625 0
2.14286 0.625 0
2.03571 0.75 0
2.14286 0.75 0
2.14286 0 0
2.25 0 0
2.14286 0.125 0
2.25 0.125 0
2.25 0 0
2.35714 0 0
2.25 0.125 0
2.35714 0.125 0
2.14286 0.125 0
2.25 0.125 0
2.14286 0.25 0
2.25 0.25 0
2.25 0.125 0
2.35714 0.125 0
2.25 0.25 0
2.35714 0.25 0
2.14286 0.25 0
2.25 0.25 0
2.14286 0.375 0
2.25 0.375 0
2.25 0.25 0
2.35714 0.25 0
2.25 0.375 0
2.35714 0.375 0
2.14286 0.375 0
2.25 0.375 0
2.14286 0.5 0
2.25 0.5 0
2.25 0.375 0
2.35714 0.375 0
2.25 0.5 0
2.35714 0.5 0
2.14286 0.5 0
2.25 0.5 0
2.14286 0.625 0
2.25 0.625 0
2.25 0.5 0
2.35714 0.5 0
2.25 0.625 0
2.35714 0.625 0
2.14286 0.625 0
2.25 0.625 0
2.14286 0.75 0
2.25 0.75 0
2.25 0.625 0
2.35714 0.625 0
2.25 0.75 0
2.35714 0.75 0
2.35714 0 0
2.46429 0 0
[...]
POINT_DATA 3648
VECTORS velocity double
0 0 0
0 0 0
0 0 0
-0.0115509 0.0129973 0
0 0 0
-0.0115509 0.0129973 0
0 0 0
-0.00157436 0.0284567 0
0 0 0
0 0 0
-0.0115509 0.0129973 0
-0.0343146 0.0133397 0
-0.0115509 0.0129973 0
-0.0343146 0.0133397 0
-0.00157436 0.0284567 0
-0.00176299 0.0250141 0
0 0 0
0 0 0
-0.0343146 0.0133397 0
-0.0523487 0.00808852 0
-0.0343146 0.0133397 0
-0.0523487 0.00808852 0
-0.00176299 0.0250141 0
-0.00269426 0.0185819 0
-0.00176299 0.0250141 0
-0.00269426 0.0185819 0
0.0206198 0.0158706 0
0.0357933 0.0116451 0
0 0 0
0 0 0
-0.0523487 0.00808852 0
-0.0586352 -0.000429475 0
-0.0523487 0.00808852 0
-0.0586352 -0.000429475 0
-0.00269426 0.0185819 0
0.00325221 -0.0116027 0
-0.00269426 0.0185819 0
0.00325221 -0.0116027 0
0.0357933 0.0116451 0
0.0347684 -0.0102995 0
0 0 0
0 0 0
-0.0586352 -0.000429475 0
-0.0484981 -0.0110807 0
-0.0586352 -0.000429475 0
-0.0484981 -0.0110807 0
0.00325221 -0.0116027 0
0.00718381 -0.016178 0
0.00325221 -0.0116027 0
0.00718381 -0.016178 0
0.0347684 -0.0102995 0
0.0176401 -0.00112485 0
0 0 0
0 0 0
-0.0484981 -0.0110807 0
-0.00763995 -0.0388611 0
-0.0484981 -0.0110807 0
-0.00763995 -0.0388611 0
0.00718381 -0.016178 0
-0.0201367 -0.049721 0
0.00718381 -0.016178 0
-0.0201367 -0.049721 0
0.0176401 -0.00112485 0
0.00831826 -0.0226156 0
0 0 0
0 0 0
-0.00763995 -0.0388611 0
0.0727242 -0.0560461 0
-0.00763995 -0.0388611 0
0.0727242 -0.0560461 0
-0.0201367 -0.049721 0
-0.0672393 -0.0821823 0
0 0 0
0 0 0
0.0727242 -0.0560461 0
0.0818428 0.0457623 0
0.0727242 -0.0560461 0
0.0818428 0.0457623 0
-0.0672393 -0.0821823 0
-0.0662047 0.0577782 0
0 0 0
0 0 0
0.0818428 0.0457623 0
0.028075 0.0167382 0
0.0818428 0.0457623 0
0.028075 0.0167382 0
-0.0662047 0.0577782 0
-0.0422923 0.0403415 0
0 0 0
0 0 0
0.028075 0.0167382 0
-0.0104072 0.0269442 0
0.028075 0.0167382 0
-0.0104072 0.0269442 0
-0.0422923 0.0403415 0
-0.0117963 0.0122297 0
0 0 0
0 0 0
0 0 0
-0.0116471 -0.0131038 0
0 0 0
-0.0116471 -0.0131038 0
0 0 0
-0.0345507 -0.0133927 0
0 0 0
-0.0345507 -0.0133927 0
0 0 0
-0.0525465 -0.00800014 0
0 0 0
-0.0525465 -0.00800014 0
0 0 0
-0.0586614 0.000532613 0
0 0 0
-0.0586614 0.000532613 0
0 0 0
-0.0484629 0.0110527 0
0 0 0
-0.0484629 0.0110527 0
0 0 0
-0.00756756 0.038951 0
0 0 0
-0.00756756 0.038951 0
0 0 0
0.0728544 0.0560301 0
0 0 0
0.0728544 0.0560301 0
0 0 0
0.081946 -0.0457682 0
0 0 0
0.081946 -0.0457682 0
0 0 0
0.0282284 -0.0166841 0
0 0 0
0.0282284 -0.0166841 0
0 0 0
-0.0103091 -0.0270557 0
0 0 0
0 0 0
-0.0116471 -0.0131038 0
-0.00158589 -0.0286931 0
-0.0116471 -0.0131038 0
-0.00158589 -0.0286931 0
-0.0345507 -0.0133927 0
-0.00173761 -0.0250628 0
-0.0345507 -0.0133927 0
-0.00173761 -0.0250628 0
-0.0525465 -0.00800014 0
-0.00262129 -0.0183951 0
-0.0525465 -0.00800014 0
-0.00262129 -0.0183951 0
-0.0586614 0.000532613 0
0.00337092 0.0118709 0
-0.0586614 0.000532613 0
0.00337092 0.0118709 0
-0.0484629 0.0110527 0
0.00736355 0.016124 0
-0.0484629 0.0110527 0
0.00736355 0.016124 0
-0.00756756 0.038951 0
-0.0201 0.0497111 0
-0.00756756 0.038951 0
-0.0201 0.0497111 0
0.0728544 0.0560301 0
-0.0672937 0.0822042 0
0.0728544 0.0560301 0
-0.0672937 0.0822042 0
0.081946 -0.0457682 0
-0.0662131 -0.0577838 0
0.081946 -0.0457682 0
-0.0662131 -0.0577838 0
0.0282284 -0.0166841 0
-0.0423044 -0.0402382 0
0.0282284 -0.0166841 0
-0.0423044 -0.0402382 0
-0.0103091 -0.0270557 0
-0.0118119 -0.0124512 0
-0.00173761 -0.0250628 0
0.020763 -0.0159354 0
-0.00262129 -0.0183951 0
0.0358628 -0.011474 0
-0.00262129 -0.0183951 0
0.0358628 -0.011474 0
0.00337092 0.0118709 0
0.0347043 0.0104665 0
0.00337092 0.0118709 0
0.0347043 0.0104665 0
0.00736355 0.016124 0
0.0174271 0.00105076 0
0.00736355 0.016124 0
0.0174271 0.00105076 0
-0.0201 0.0497111 0
0.00817572 0.0225473 0
0.00658922 0.0210462 0
0.0152529 0.0227426 0
0.00342416 0.0117527 0
0.0106622 0.0133376 0
0.0152529 0.0227426 0
0.0206198 0.0158706 0
0.0106622 0.0133376 0
0.0195195 0.00886934 0
0.00342416 0.0117527 0
0.0106622 0.0133376 0
0.052041 -0.00337003 0
0.0741054 -0.00501536 0
0.0106622 0.0133376 0
0.0195195 0.00886934 0
0.0741054 -0.00501536 0
0.093013 -0.00490102 0
0.0206198 0.0158706 0
0.027682 0.0132726 0
0.0195195 0.00886934 0
0.024891 0.00601717 0
0.027682 0.0132726 0
0.0357933 0.0116451 0
0.024891 0.00601717 0
0.0296484 0.00422578 0
0.0195195 0.00886934 0
0.024891 0.00601717 0
0.093013 -0.00490102 0
0.109372 -0.00575868 0
0.024891 0.00601717 0
0.0296484 0.00422578 0
0.109372 -0.00575868 0
0.1233 -0.00634141 0
0.0357933 0.0116451 0
0.0398107 0.00153237 0
0.0296484 0.00422578 0
0.0330582 0.000794921 0
0.0398107 0.00153237 0
0.0347684 -0.0102995 0
0.0330582 0.000794921 0
0.032743 -0.00265871 0
0.0296484 0.00422578 0
0.0330582 0.000794921 0
0.1233 -0.00634141 0
0.135434 -0.00747231 0
0.0330582 0.000794921 0
0.032743 -0.00265871 0
0.135434 -0.00747231 0
0.146304 -0.00748176 0
0.0347684 -0.0102995 0
0.0257549 -0.00680897 0
0.032743 -0.00265871 0
0.0317102 -0.00235115 0
0.0257549 -0.00680897 0
0.0176401 -0.00112485 0
0.0317102 -0.00235115 0
0.0354823 -0.0002763 0
0.032743 -0.00265871 0
0.0317102 -0.00235115 0
0.146304 -0.00748176 0
0.155967 -0.00851994 0
0.0317102 -0.00235115 0
0.0354823 -0.0002763 0
0.155967 -0.00851994 0
0.164094 -0.00895959 0
0.0176401 -0.00112485 0
0.0113928 -0.0102101 0
0.0354823 -0.0002763 0
0.0385048 -0.00697346 0
0.0113928 -0.0102101 0
0.00831826 -0.0226156 0
0.0385048 -0.00697346 0
0.0309544 -0.0129269 0
0.0354823 -0.0002763 0
0.0385048 -0.00697346 0
0.164094 -0.00895959 0
0.170781 -0.0103633 0
0.0385048 -0.00697346 0
0.0309544 -0.0129269 0
0.170781 -0.0103633 0
0.176613 -0.00777231 0
0.0520482 0.00337748 0
0.24062 0.0132689 0
0.0741406 0.00501482 0
0.233581 0.0122826 0
0.24062 0.0132689 0
0.157988 0.00658829 0
0.233581 0.0122826 0
0.153858 0.00623169 0
0.0741406 0.00501482 0
0.233581 0.0122826 0
0.0930771 0.00490229 0
0.226978 0.0112184 0
0.233581 0.0122826 0
0.153858 0.00623169 0
0.226978 0.0112184 0
0.150187 0.00567047 0
0.0930771 0.00490229 0
0.226978 0.0112184 0
0.109466 0.00576935 0
0.220704 0.0102198 0
0.226978 0.0112184 0
0.150187 0.00567047 0
0.220704 0.0102198 0
0.146973 0.00529126 0
0.109466 0.00576935 0
0.220704 0.0102198 0
0.123426 0.00636458 0
0.214668 0.0099761 0
0.220704 0.0102198 0
0.146973 0.00529126 0
0.214668 0.0099761 0
0.144069 0.00513895 0
0.123426 0.00636458 0
0.214668 0.0099761 0
0.135588 0.00751491 0
0.20865 0.00953317 0
0.214668 0.0099761 0
0.144069 0.00513895 0
0.20865 0.00953317 0
0.141434 0.00494987 0
0.135588 0.00751491 0
0.20865 0.00953317 0
0.14648 0.00752467 0
0.202482 0.00946758 0
0.20865 0.00953317 0
0.141434 0.00494987 0
0.202482 0.00946758 0
0.139031 0.00477802 0
0.14648 0.00752467 0
0.202482 0.00946758 0
0.156166 0.00856042 0
0.196149 0.0090195 0
0.202482 0.00946758 0
0.139031 0.00477802 0
0.196149 0.0090195 0
0.13683 0.00455042 0
0.156166 0.00856042 0
0.196149 0.0090195 0
0.164311 0.00899714 0
0.189821 0.00943031 0
0.196149 0.0090195 0
0.13683 0.00455042 0
0.189821 0.00943031 0
0.134735 0.0047577 0
0.164311 0.00899714 0
0.189821 0.00943031 0
0.171007 0.0104043 0
0.183393 0.00877419 0
0.189821 0.00943031 0
0.134735 0.0047577 0
0.183393 0.00877419 0
0.132817 0.004096 0
0.171007 0.0104043 0
0.183393 0.00877419 0
0.176843 0.00780269 0
0.176925 0.00757154 0
0.183393 0.00877419 0
0.132817 0.004096 0
0.176925 0.00757154 0
0.131282 0.00334166 0
0.158258 -0.00659537 0
0.240566 -0.0132626 0
0.154124 -0.00623816 0
0.233551 -0.0122806 0
0.240566 -0.0132626 0
0.052041 -0.00337003 0
0.233551 -0.0122806 0
0.0741054 -0.00501536 0
0.154124 -0.00623816 0
0.233551 -0.0122806 0
0.150448 -0.00567368 0
0.22697 -0.0112141 0
0.233551 -0.0122806 0
0.0741054 -0.00501536 0
0.22697 -0.0112141 0
0.093013 -0.00490102 0
0.150448 -0.00567368 0
0.22697 -0.0112141 0
0.147228 -0.00529059 0
0.220718 -0.0102093 0
0.22697 -0.0112141 0
0.093013 -0.00490102 0
0.220718 -0.0102093 0
0.109372 -0.00575868 0
0.147228 -0.00529059 0
0.220718 -0.0102093 0
0.144321 -0.00513419 0
0.214712 -0.00995495 0
0.220718 -0.0102093 0
0.109372 -0.00575868 0
0.214712 -0.00995495 0
0.1233 -0.00634141 0
0.144321 -0.00513419 0
0.214712 -0.00995495 0
0.141682 -0.00494203 0
0.208732 -0.00950643 0
0.214712 -0.00995495 0
0.1233 -0.00634141 0
0.208732 -0.00950643 0
0.135434 -0.00747231 0
0.141682 -0.00494203 0
0.208732 -0.00950643 0
0.139275 -0.00476919 0
0.202605 -0.00943809 0
0.208732 -0.00950643 0
0.135434 -0.00747231 0
0.202605 -0.00943809 0
0.146304 -0.00748176 0
0.139275 -0.00476919 0
0.202605 -0.00943809 0
0.137069 -0.00454258 0
0.196314 -0.00899514 0
0.202605 -0.00943809 0
0.146304 -0.00748176 0
0.196314 -0.00899514 0
0.155967 -0.00851994 0
0.137069 -0.00454258 0
0.196314 -0.00899514 0
0.134965 -0.00474872 0
0.190025 -0.00940716 0
0.196314 -0.00899514 0
0.155967 -0.00851994 0
0.190025 -0.00940716 0
0.164094 -0.00895959 0
0.134965 -0.00474872 0
0.190025 -0.00940716 0
0.133037 -0.00409297 0
0.183634 -0.00875829 0
0.190025 -0.00940716 0
0.164094 -0.00895959 0
0.183634 -0.00875829 0
0.170781 -0.0103633 0
0.133037 -0.00409297 0
0.183634 -0.00875829 0
0.131489 -0.00333979 0
0.177201 -0.00755893 0
0.183634 -0.00875829 0
0.170781 -0.0103633 0
0.177201 -0.00755893 0
0.176613 -0.00777231 0
0.00669174 -0.0212207 0
0.00345964 -0.0118407 0
0.0153945 -0.0228731 0
0.0107972 -0.0133934 0
0.00345964 -0.0118407 0
0.0520482 0.00337748 0
0.0107972 -0.0133934 0
0.0741406 0.00501482 0
0.0153945 -0.0228731 0
0.0107972 -0.0133934 0
0.020763 -0.0159354 0
0.0197217 -0.00892922 0
0.0107972 -0.0133934 0
0.0741406 0.00501482 0
0.0197217 -0.00892922 0
0.0930771 0.00490229 0
0.020763 -0.0159354 0
0.0197217 -0.00892922 0
0.0277746 -0.0132213 0
0.0251127 -0.00600735 0
0.0197217 -0.00892922 0
0.0930771 0.00490229 0
0.0251127 -0.00600735 0
0.109466 0.00576935 0
0.0277746 -0.0132213 0
0.0251127 -0.00600735 0
0.0358628 -0.011474 0
0.0297821 -0.00414221 0
0.0251127 -0.00600735 0
0.109466 0.00576935 0
0.0297821 -0.00414221 0
0.123426 0.00636458 0
0.0358628 -0.011474 0
0.0297821 -0.00414221 0
0.0398435 -0.00136357 0
0.0330763 -0.000713522 0
0.0297821 -0.00414221 0
0.123426 0.00636458 0
0.0330763 -0.000713522 0
0.135588 0.00751491 0
0.0398435 -0.00136357 0
0.0330763 -0.000713522 0
0.0347043 0.0104665 0
0.0326881 0.00271931 0
0.0330763 -0.000713522 0
0.135588 0.00751491 0
0.0326881 0.00271931 0
0.14648 0.00752467 0
0.0347043 0.0104665 0
0.0326881 0.00271931 0
0.0255896 0.00686511 0
0.0316302 0.00237357 0
0.0326881 0.00271931 0
0.14648 0.00752467 0
0.0316302 0.00237357 0
0.156166 0.00856042 0
0.0255896 0.00686511 0
0.0316302 0.00237357 0
0.0174271 0.00105076 0
0.0354534 0.000248295 0
0.0316302 0.00237357 0
0.156166 0.00856042 0
0.0354534 0.000248295 0
0.164311 0.00899714 0
0.0174271 0.00105076 0
0.0354534 0.000248295 0
0.0111865 0.0101223 0
0.0385684 0.00696029 0
0.0354534 0.000248295 0
0.164311 0.00899714 0
0.0385684 0.00696029 0
0.171007 0.0104043 0
0.0111865 0.0101223 0
0.0385684 0.00696029 0
0.00817572 0.0225473 0
0.0310818 0.0129339 0
0.0385684 0.00696029 0
0.171007 0.0104043 0
0.0310818 0.0129339 0
0.176843 0.00780269 0
0 0 0
-0.000355538 0.0145838 0
0 0 0
0.00118466 0.013865 0
-0.000355538 0.0145838 0
-0.00157436 0.0284567 0
0.00118466 0.013865 0
0.0027368 0.0289712 0
0 0 0
0.00118466 0.013865 0
0 0 0
8.79311e-05 0.0126618 0
0.00118466 0.013865 0
0.0027368 0.0289712 0
8.79311e-05 0.0126618 0
0.00658922 0.0210462 0
-0.00157436 0.0284567 0
-0.00244621 0.0266774 0
0.0027368 0.0289712 0
0.00395554 0.0260151 0
-0.00244621 0.0266774 0
-0.00176299 0.0250141 0
0.00395554 0.0260151 0
0.0066713 0.021924 0
0.0027368 0.0289712 0
0.00395554 0.0260151 0
0.00658922 0.0210462 0
0.0152529 0.0227426 0
0.00395554 0.0260151 0
0.0066713 0.021924 0
0.0152529 0.0227426 0
0.0206198 0.0158706 0
-0.0201367 -0.049721 0
-0.0426679 -0.0675846 0
-0.00948474 -0.0301855 0
-0.0304219 -0.0364723 0
-0.0426679 -0.0675846 0
-0.0672393 -0.0821823 0
-0.0304219 -0.0364723 0
-0.0615465 -0.0486392 0
-0.00948474 -0.0301855 0
-0.0304219 -0.0364723 0
0.00831826 -0.0226156 0
-0.00392283 -0.00492492 0
-0.0304219 -0.0364723 0
-0.0615465 -0.0486392 0
-0.00392283 -0.00492492 0
-0.037787 -0.00491632 0
0.00831826 -0.0226156 0
-0.00392283 -0.00492492 0
0.0309544 -0.0129269 0
0.0290594 0.00154991 0
-0.00392283 -0.00492492 0
-0.037787 -0.00491632 0
0.0290594 0.00154991 0
0.0459811 0.00822187 0
0.0309544 -0.0129269 0
0.0290594 0.00154991 0
0.176613 -0.00777231 0
0.181067 -0.00710489 0
0.0290594 0.00154991 0
0.0459811 0.00822187 0
0.181067 -0.00710489 0
0.182772 -0.00473835 0
-0.0672393 -0.0821823 0
-0.080258 -0.0103158 0
-0.0615465 -0.0486392 0
-0.0758074 -0.0108866 0
-0.080258 -0.0103158 0
-0.0662047 0.0577782 0
-0.0758074 -0.0108866 0
-0.0624588 0.0258965 0
-0.0615465 -0.0486392 0
-0.0758074 -0.0108866 0
-0.037787 -0.00491632 0
-0.0429069 -0.0311135 0
-0.0758074 -0.0108866 0
-0.0624588 0.0258965 0
-0.0429069 -0.0311135 0
-0.0389048 0.025122 0
-0.0662047 0.0577782 0
-0.0458756 0.0484816 0
-0.0624588 0.0258965 0
-0.0480253 0.0397043 0
-0.0458756 0.0484816 0
-0.0422923 0.0403415 0
-0.0480253 0.0397043 0
-0.0328894 0.0272104 0
-0.0624588 0.0258965 0
-0.0480253 0.0397043 0
-0.0389048 0.025122 0
-0.0423143 0.0280055 0
-0.0480253 0.0397043 0
-0.0328894 0.0272104 0
-0.0423143 0.0280055 0
-0.0225716 -0.0016904 0
-0.0422923 0.0403415 0
-0.0373539 0.0271428 0
-0.0328894 0.0272104 0
-0.00162618 -0.00208212 0
-0.0373539 0.0271428 0
-0.0117963 0.0122297 0
-0.00162618 -0.00208212 0
0.0135513 -0.00657179 0
-0.0328894 0.0272104 0
-0.00162618 -0.00208212 0
-0.0225716 -0.0016904 0
-0.0231101 -0.00878768 0
-0.00162618 -0.00208212 0
0.0135513 -0.00657179 0
-0.0231101 -0.00878768 0
-0.029588 -0.00971128 0
0 0 0
0 0 0
-0.00306832 0.00668246 0
-0.0381938 0.034144 0
0 0 0
0 0 0
-0.0381938 0.034144 0
-0.0374953 -0.0338151 0
-0.00306832 0.00668246 0
-0.0381938 0.034144 0
-0.0104072 0.0269442 0
0.0125974 0.0279263 0
-0.0381938 0.034144 0
-0.0374953 -0.0338151 0
0.0125974 0.0279263 0
0.0143993 -0.0297584 0
-0.0104072 0.0269442 0
0.0125974 0.0279263 0
-0.0113791 0.0368877 0
0.00718241 -0.0294184 0
0.0125974 0.0279263 0
0.0143993 -0.0297584 0
0.00718241 -0.0294184 0
-0.00346603 0.0371774 0
-0.0113791 0.0368877 0
0.00718241 -0.0294184 0
-0.0117963 0.0122297 0
-0.00638932 -0.0308665 0
0.00718241 -0.0294184 0
-0.00346603 0.0371774 0
-0.00638932 -0.0308665 0
-0.0205394 0.0666854 0
-0.0117963 0.0122297 0
-0.00638932 -0.0308665 0
0.0135513 -0.00657179 0
-0.00997891 0.00861049 0
-0.00638932 -0.0308665 0
-0.0205394 0.0666854 0
-0.00997891 0.00861049 0
-0.0208116 0.0558081 0
0.0135513 -0.00657179 0
-0.00997891 0.00861049 0
-0.029588 -0.00971128 0
-0.011275 0.0177235 0
-0.00997891 0.00861049 0
-0.0208116 0.0558081 0
-0.011275 0.0177235 0
0.00982574 0.0349094 0
0 0 0
0 0 0
-0.0374953 -0.0338151 0
-0.0182902 0.0103065 0
0 0 0
0 0 0
-0.0182902 0.0103065 0
-0.0231564 -0.0037389 0
-0.0374953 -0.0338151 0
-0.0182902 0.0103065 0
0.0143993 -0.0297584 0
-0.0292699 0.033617 0
-0.0182902 0.0103065 0
-0.0231564 -0.0037389 0
-0.0292699 0.033617 0
-0.0441347 -0.00234696 0
0.0143993 -0.0297584 0
-0.0292699 0.033617 0
-0.00346603 0.0371774 0
-0.0283041 0.0464736 0
-0.0292699 0.033617 0
-0.0441347 -0.00234696 0
-0.0283041 0.0464736 0
-0.0267671 0.00123108 0
-0.00346603 0.0371774 0
-0.0283041 0.0464736 0
-0.0205394 0.0666854 0
-0.00356211 0.0260391 0
-0.0283041 0.0464736 0
-0.0267671 0.00123108 0
-0.00356211 0.0260391 0
0.0179532 -0.0051073 0
-0.0205394 0.0666854 0
-0.00356211 0.0260391 0
-0.0208116 0.0558081 0
-0.0160441 0.0114202 0
-0.00356211 0.0260391 0
0.0179532 -0.0051073 0
-0.0160441 0.0114202 0
-0.0157572 -0.0157664 0
-0.0208116 0.0558081 0
-0.0160441 0.0114202 0
0.00982574 0.0349094 0
0.0204525 0.0139407 0
-0.0160441 0.0114202 0
-0.0157572 -0.0157664 0
0.0204525 0.0139407 0
0.00569422 -0.00151041 0
0 0 0
0 0 0
-0.0231564 -0.0037389 0
-0.0169564 -0.00406254 0
0 0 0
0 0 0
-0.0169564 -0.00406254 0
-0.00404863 -0.0107244 0
-0.0231564 -0.0037389 0
-0.0169564 -0.00406254 0
-0.0441347 -0.00234696 0
-0.0421183 -0.0157197 0
-0.0169564 -0.00406254 0
-0.00404863 -0.0107244 0
-0.0421183 -0.0157197 0
-0.0285215 -0.0294661 0
-0.0441347 -0.00234696 0
-0.0421183 -0.0157197 0
-0.0267671 0.00123108 0
-0.0303214 -0.017851 0
-0.0421183 -0.0157197 0
-0.0285215 -0.0294661 0
-0.0303214 -0.017851 0
-0.030965 -0.0423902 0
-0.0267671 0.00123108 0
-0.0303214 -0.017851 0
0.0179532 -0.0051073 0
0.0101649 0.00126105 0
-0.0303214 -0.017851 0
-0.030965 -0.0423902 0
0.0101649 0.00126105 0
-0.0108003 -0.0363724 0
0.0179532 -0.0051073 0
0.0101649 0.00126105 0
-0.0157572 -0.0157664 0
-0.00397524 0.00723224 0
0.0101649 0.00126105 0
-0.0108003 -0.0363724 0
-0.00397524 0.00723224 0
-0.000699592 -0.0217498 0
-0.0157572 -0.0157664 0
-0.00397524 0.00723224 0
0.00569422 -0.00151041 0
0.00161319 -0.0167071 0
-0.00397524 0.00723224 0
-0.000699592 -0.0217498 0
0.00161319 -0.0167071 0
0.00279882 -0.00323785 0
0 0 0
0 0 0
-0.00404863 -0.0107244 0
0.00265662 0.00292327 0
0 0 0
0 0 0
0.00265662 0.00292327 0
0 0 0
-0.00404863 -0.0107244 0
0.00265662 0.00292327 0
-0.0285215 -0.0294661 0
-0.010717 -0.00677056 0
0.00265662 0.00292327 0
0 0 0
-0.010717 -0.00677056 0
0 0 0
-0.0285215 -0.0294661 0
-0.010717 -0.00677056 0
-0.030965 -0.0423902 0
-0.013276 -0.0353178 0
-0.010717 -0.00677056 0
0 0 0
-0.013276 -0.0353178 0
0 0 0
-0.030965 -0.0423902 0
-0.013276 -0.0353178 0
-0.0108003 -0.0363724 0
-0.00998878 -0.0627525 0
-0.013276 -0.0353178 0
0 0 0
-0.00998878 -0.0627525 0
0 0 0
-0.0108003 -0.0363724 0
-0.00998878 -0.0627525 0
-0.000699592 -0.0217498 0
-0.00206626 -0.0769693 0
-0.00998878 -0.0627525 0
0 0 0
-0.00206626 -0.0769693 0
0 0 0
-0.000699592 -0.0217498 0
-0.00206626 -0.0769693 0
0.00279882 -0.00323785 0
-0.00533152 -0.0856137 0
-0.00206626 -0.0769693 0
0 0 0
-0.00533152 -0.0856137 0
0 0 0
0.176843 0.00780269 0
0.176925 0.00757154 0
0.181298 0.00713406 0
0.171496 0.00571985 0
0.176925 0.00757154 0
0.131282 0.00334166 0
0.171496 0.00571985 0
0.130114 0.00259951 0
0.181298 0.00713406 0
0.171496 0.00571985 0
0.182994 0.00475399 0
0.168231 0.00372976 0
0.171496 0.00571985 0
0.130114 0.00259951 0
0.168231 0.00372976 0
0.128988 0.00183207 0
0.166099 0.00680952 0
0.107249 0.00597604 0
0.162037 0.00665906 0
0.109835 0.0057825 0
0.107249 0.00597604 0
0.227914 5.68022e-06 0
0.109835 0.0057825 0
0.215317 5.35683e-06 0
0.162037 0.00665906 0
0.109835 0.0057825 0
0.157988 0.00658829 0
0.111985 0.00528622 0
0.109835 0.0057825 0
0.215317 5.35683e-06 0
0.111985 0.00528622 0
0.203817 5.16568e-06 0
0.157988 0.00658829 0
0.111985 0.00528622 0
0.153858 0.00623169 0
0.113957 0.00503618 0
0.111985 0.00528622 0
0.203817 5.16568e-06 0
0.113957 0.00503618 0
0.193224 5.02817e-06 0
0.153858 0.00623169 0
0.113957 0.00503618 0
0.150187 0.00567047 0
0.115671 0.00455909 0
0.113957 0.00503618 0
0.193224 5.02817e-06 0
0.115671 0.00455909 0
0.183528 5.43234e-06 0
0.150187 0.00567047 0
0.115671 0.00455909 0
0.146973 0.00529126 0
0.1171 0.00432564 0
0.115671 0.00455909 0
0.183528 5.43234e-06 0
0.1171 0.00432564 0
0.174745 5.85685e-06 0
0.146973 0.00529126 0
0.1171 0.00432564 0
0.144069 0.00513895 0
0.118209 0.0039191 0
0.1171 0.00432564 0
0.174745 5.85685e-06 0
0.118209 0.0039191 0
0.166873 6.19467e-06 0
0.144069 0.00513895 0
0.118209 0.0039191 0
0.141434 0.00494987 0
0.118958 0.00386259 0
0.118209 0.0039191 0
0.166873 6.19467e-06 0
0.118958 0.00386259 0
0.159819 6.74901e-06 0
0.141434 0.00494987 0
0.118958 0.00386259 0
0.139031 0.00477802 0
0.119358 0.00344489 0
0.118958 0.00386259 0
0.159819 6.74901e-06 0
0.119358 0.00344489 0
0.153447 6.50842e-06 0
0.139031 0.00477802 0
0.119358 0.00344489 0
0.13683 0.00455042 0
0.11941 0.00346087 0
0.119358 0.00344489 0
0.153447 6.50842e-06 0
0.11941 0.00346087 0
0.14774 7.46916e-06 0
0.13683 0.00455042 0
0.11941 0.00346087 0
0.134735 0.0047577 0
0.119179 0.00309703 0
0.11941 0.00346087 0
0.14774 7.46916e-06 0
0.119179 0.00309703 0
0.142706 6.85954e-06 0
0.134735 0.0047577 0
0.119179 0.00309703 0
0.132817 0.004096 0
0.118817 0.00309507 0
0.119179 0.00309703 0
0.142706 6.85954e-06 0
0.118817 0.00309507 0
0.138196 5.3119e-06 0
0.132817 0.004096 0
0.118817 0.00309507 0
0.131282 0.00334166 0
0.118499 0.00236305 0
0.118817 0.00309507 0