# vtk DataFile Version 3.0
#This file was generated by the deal.II library on 2026/3/26 at 11:19:56
ASCII
DATASET UNSTRUCTURED_GRID

POINTS 3648 double
0 0 0
0.214286 0 0
0 0.25 0
0.214286 0.25 0
0 0.25 0
0.214286 0.25 0
0 0.5 0
0.214286 0.5 0
0.214286 0 0
0.428571 0 0
0.214286 0.25 0
0.428571 0.25 0
0.214286 0.25 0
0.428571 0.25 0
0.214286 0.5 0
0.428571 0.5 0
0.428571 0 0
0.642857 0 0
0.428571 0.25 0
0.642857 0.25 0
0.428571 0.25 0
0.642857 0.25 0
0.428571 0.5 0
0.642857 0.5 0
0.428571 0.5 0
0.642857 0.5 0
0.428571 0.75 0
0.642857 0.75 0
0.642857 0 0
0.857143 0 0
0.642857 0.25 0
0.857143 0.25 0
0.642857 0.25 0
0.857143 0.25 0
0.642857 0.5 0
0.857143 0.5 0
0.642857 0.5 0
0.857143 0.5 0
0.642857 0.75 0
0.857143 0.75 0
0.857143 0 0
1.07143 0 0
0.857143 0.25 0
1.07143 0.25 0
0.857143 0.25 0
1.07143 0.25 0
0.857143 0.5 0
1.07143 0.5 0
0.857143 0.5 0
1.07143 0.5 0
0.857143 0.75 0
1.07143 0.75 0
1.07143 0 0
1.28571 0 0
1.07143 0.25 0
1.28571 0.25 0
1.07143 0.25 0
1.28571 0.25 0
1.07143 0.5 0
1.28571 0.5 0
1.07143 0.5 0
1.28571 0.5 0
1.07143 0.75 0
1.28571 0.75 0
1.28571 0 0
1.5 0 0
1.28571 0.25 0
1.5 0.25 0
1.28571 0.25 0
1.5 0.25 0
1.28571 0.5 0
1.5 0.5 0
1.5 0 0
1.71429 0 0
1.5 0.25 0
1.71429 0.25 0
1.5 0.25 0
1.71429 0.25 0
1.5 0.5 0
1.71429 0.5 0
1.71429 0 0
1.92857 0 0
1.71429 0.25 0
1.92857 0.25 0
1.71429 0.25 0
1.92857 0.25 0
1.71429 0.5 0
1.92857 0.5 0
1.92857 0 0
2.14286 0 0
1.92857 0.25 0
2.14286 0.25 0
1.92857 0.25 0
2.14286 0.25 0
1.92857 0.5 0
2.14286 0.5 0
0 3 0
0 2.75 0
0.214286 3 0
0.214286 2.75 0
0.214286 3 0
0.214286 2.75 0
0.428571 3 0
0.428571 2.75 0
0.428571 3 0
0.428571 2.75 0
0.642857 3 0
0.642857 2.75 0
0.642857 3 0
0.642857 2.75 0
0.857143 3 0
0.857143 2.75 0
0.857143 3 0
0.857143 2.75 0
1.07143 3 0
1.07143 2.75 0
1.07143 3 0
1.07143 2.75 0
1.28571 3 0
1.28571 2.75 0
1.28571 3 0
1.28571 2.75 0
1.5 3 0
1.5 2.75 0
1.5 3 0
1.5 2.75 0
1.71429 3 0
1.71429 2.75 0
1.71429 3 0
1.71429 2.75 0
1.92857 3 0
1.92857 2.75 0
1.92857 3 0
1.92857 2.75 0
2.14286 3 0
2.14286 2.75 0
0 2.75 0
0 2.5 0
0.214286 2.75 0
0.214286 2.5 0
0.214286 2.75 0
0.214286 2.5 0
0.428571 2.75 0
0.428571 2.5 0
0.428571 2.75 0
0.428571 2.5 0
0.642857 2.75 0
0.642857 2.5 0
0.642857 2.75 0
0.642857 2.5 0
0.857143 2.75 0
0.857143 2.5 0
0.857143 2.75 0
0.857143 2.5 0
1.07143 2.75 0
1.07143 2.5 0
1.07143 2.75 0
1.07143 2.5 0
1.28571 2.75 0
1.28571 2.5 0
1.28571 2.75 0
1.28571 2.5 0
1.5 2.75 0
1.5 2.5 0
1.5 2.75 0
1.5 2.5 0
1.71429 2.75 0
1.71429 2.5 0
1.71429 2.75 0
1.71429 2.5 0
1.92857 2.75 0
1.92857 2.5 0
1.92857 2.75 0
1.92857 2.5 0
2.14286 2.75 0
2.14286 2.5 0
0.428571 2.5 0
0.428571 2.25 0
0.642857 2.5 0
0.642857 2.25 0
0.642857 2.5 0
0.642857 2.25 0
0.857143 2.5 0
0.857143 2.25 0
0.857143 2.5 0
0.857143 2.25 0
1.07143 2.5 0
1.07143 2.25 0
1.07143 2.5 0
1.07143 2.25 0
1.28571 2.5 0
1.28571 2.25 0
0.214286 0.75 0
0.321429 0.75 0
0.214286 0.875 0
0.321429 0.875 0
0.321429 0.75 0
0.428571 0.75 0
0.321429 0.875 0
0.428571 0.875 0
0.214286 0.875 0
0.321429 0.875 0
0.214286 1 0
0.321429 1 0
0.321429 0.875 0
0.428571 0.875 0
0.321429 1 0
0.428571 1 0
0.428571 0.75 0
0.535714 0.75 0
0.428571 0.875 0
0.535714 0.875 0
0.535714 0.75 0
0.642857 0.75 0
0.535714 0.875 0
0.642857 0.875 0
0.428571 0.875 0
0.535714 0.875 0
0.428571 1 0
0.535714 1 0
0.535714 0.875 0
0.642857 0.875 0
0.535714 1 0
0.642857 1 0
0.642857 0.75 0
0.75 0.75 0
0.642857 0.875 0
0.75 0.875 0
0.75 0.75 0
0.857143 0.75 0
0.75 0.875 0
0.857143 0.875 0
0.642857 0.875 0
0.75 0.875 0
0.642857 1 0
0.75 1 0
0.75 0.875 0
0.857143 0.875 0
0.75 1 0
0.857143 1 0
0.857143 0.75 0
0.964286 0.75 0
0.857143 0.875 0
0.964286 0.875 0
0.964286 0.75 0
1.07143 0.75 0
0.964286 0.875 0
1.07143 0.875 0
0.857143 0.875 0
0.964286 0.875 0
0.857143 1 0
0.964286 1 0
0.964286 0.875 0
1.07143 0.875 0
0.964286 1 0
1.07143 1 0
1.07143 0.75 0
1.17857 0.75 0
1.07143 0.875 0
1.17857 0.875 0
1.17857 0.75 0
1.28571 0.75 0
1.17857 0.875 0
1.28571 0.875 0
1.07143 0.875 0
1.17857 0.875 0
1.07143 1 0
1.17857 1 0
1.17857 0.875 0
1.28571 0.875 0
1.17857 1 0
1.28571 1 0
0.214286 2 0
0.214286 1.875 0
0.321429 2 0
0.321429 1.875 0
0.214286 1.875 0
0.214286 1.75 0
0.321429 1.875 0
0.321429 1.75 0
0.321429 2 0
0.321429 1.875 0
0.428571 2 0
0.428571 1.875 0
0.321429 1.875 0
0.321429 1.75 0
0.428571 1.875 0
0.428571 1.75 0
0.428571 2 0
0.428571 1.875 0
0.535714 2 0
0.535714 1.875 0
0.428571 1.875 0
0.428571 1.75 0
0.535714 1.875 0
0.535714 1.75 0
0.535714 2 0
0.535714 1.875 0
0.642857 2 0
0.642857 1.875 0
0.535714 1.875 0
0.535714 1.75 0
0.642857 1.875 0
0.642857 1.75 0
0.642857 2 0
0.642857 1.875 0
0.75 2 0
0.75 1.875 0
0.642857 1.875 0
0.642857 1.75 0
0.75 1.875 0
0.75 1.75 0
0.75 2 0
0.75 1.875 0
0.857143 2 0
0.857143 1.875 0
0.75 1.875 0
0.75 1.75 0
0.857143 1.875 0
0.857143 1.75 0
0.857143 2 0
0.857143 1.875 0
0.964286 2 0
0.964286 1.875 0
0.857143 1.875 0
0.857143 1.75 0
0.964286 1.875 0
0.964286 1.75 0
0.964286 2 0
0.964286 1.875 0
1.07143 2 0
1.07143 1.875 0
0.964286 1.875 0
0.964286 1.75 0
1.07143 1.875 0
1.07143 1.75 0
1.07143 2 0
1.07143 1.875 0
1.17857 2 0
1.17857 1.875 0
1.07143 1.875 0
1.07143 1.75 0
1.17857 1.875 0
1.17857 1.75 0
1.17857 2 0
1.17857 1.875 0
1.28571 2 0
1.28571 1.875 0
1.17857 1.875 0
1.17857 1.75 0
1.28571 1.875 0
1.28571 1.75 0
0.214286 1.25 0
0.214286 1.125 0
0.321429 1.25 0
0.321429 1.125 0
0.214286 1.125 0
0.214286 1 0
0.321429 1.125 0
0.321429 1 0
0.321429 1.25 0
0.321429 1.125 0
0.428571 1.25 0
0.428571 1.125 0
0.321429 1.125 0
0.321429 1 0
0.428571 1.125 0
0.428571 1 0
0.428571 1.25 0
0.428571 1.125 0
0.535714 1.25 0
0.535714 1.125 0
0.428571 1.125 0
0.428571 1 0
0.535714 1.125 0
0.535714 1 0
0.535714 1.25 0
0.535714 1.125 0
0.642857 1.25 0
0.642857 1.125 0
0.535714 1.125 0
0.535714 1 0
0.642857 1.125 0
0.642857 1 0
0.642857 1.25 0
0.642857 1.125 0
0.75 1.25 0
0.75 1.125 0
0.642857 1.125 0
0.642857 1 0
0.75 1.125 0
0.75 1 0
0.75 1.25 0
0.75 1.125 0
0.857143 1.25 0
0.857143 1.125 0
0.75 1.125 0
0.75 1 0
0.857143 1.125 0
0.857143 1 0
0.857143 1.25 0
0.857143 1.125 0
0.964286 1.25 0
0.964286 1.125 0
0.857143 1.125 0
0.857143 1 0
0.964286 1.125 0
0.964286 1 0
0.964286 1.25 0
0.964286 1.125 0
1.07143 1.25 0
1.07143 1.125 0
0.964286 1.125 0
0.964286 1 0
1.07143 1.125 0
1.07143 1 0
1.07143 1.25 0
1.07143 1.125 0
1.17857 1.25 0
1.17857 1.125 0
1.07143 1.125 0
1.07143 1 0
1.17857 1.125 0
1.17857 1 0
1.17857 1.25 0
1.17857 1.125 0
1.28571 1.25 0
1.28571 1.125 0
1.17857 1.125 0
1.17857 1 0
1.28571 1.125 0
1.28571 1 0
0.214286 2.25 0
0.214286 2.125 0
0.321429 2.25 0
0.321429 2.125 0
0.214286 2.125 0
0.214286 2 0
0.321429 2.125 0
0.321429 2 0
0.321429 2.25 0
0.321429 2.125 0
0.428571 2.25 0
0.428571 2.125 0
0.321429 2.125 0
0.321429 2 0
0.428571 2.125 0
0.428571 2 0
0.428571 2.25 0
0.428571 2.125 0
0.535714 2.25 0
0.535714 2.125 0
0.428571 2.125 0
0.428571 2 0
0.535714 2.125 0
0.535714 2 0
0.535714 2.25 0
0.535714 2.125 0
0.642857 2.25 0
0.642857 2.125 0
0.535714 2.125 0
0.535714 2 0
0.642857 2.125 0
0.642857 2 0
0.642857 2.25 0
0.642857 2.125 0
0.75 2.25 0
0.75 2.125 0
0.642857 2.125 0
0.642857 2 0
0.75 2.125 0
0.75 2 0
0.75 2.25 0
0.75 2.125 0
0.857143 2.25 0
0.857143 2.125 0
0.75 2.125 0
0.75 2 0
0.857143 2.125 0
0.857143 2 0
0.857143 2.25 0
0.857143 2.125 0
0.964286 2.25 0
0.964286 2.125 0
0.857143 2.125 0
0.857143 2 0
0.964286 2.125 0
0.964286 2 0
0.964286 2.25 0
0.964286 2.125 0
1.07143 2.25 0
1.07143 2.125 0
0.964286 2.125 0
0.964286 2 0
1.07143 2.125 0
1.07143 2 0
1.07143 2.25 0
1.07143 2.125 0
1.17857 2.25 0
1.17857 2.125 0
1.07143 2.125 0
1.07143 2 0
1.17857 2.125 0
1.17857 2 0
1.17857 2.25 0
1.17857 2.125 0
1.28571 2.25 0
1.28571 2.125 0
1.17857 2.125 0
1.17857 2 0
1.28571 2.125 0
1.28571 2 0
0 0.5 0
0.107143 0.5 0
0 0.625 0
0.107143 0.625 0
0.107143 0.5 0
0.214286 0.5 0
0.107143 0.625 0
0.214286 0.625 0
0 0.625 0
0.107143 0.625 0
0 0.75 0
0.107143 0.75 0
0.107143 0.625 0
0.214286 0.625 0
0.107143 0.75 0
0.214286 0.75 0
0.214286 0.5 0
0.321429 0.5 0
0.214286 0.625 0
0.321429 0.625 0
0.321429 0.5 0
0.428571 0.5 0
0.321429 0.625 0
0.428571 0.625 0
0.214286 0.625 0
0.321429 0.625 0
0.214286 0.75 0
0.321429 0.75 0
0.321429 0.625 0
0.428571 0.625 0
0.321429 0.75 0
0.428571 0.75 0
1.28571 0.5 0
1.39286 0.5 0
1.28571 0.625 0
1.39286 0.625 0
1.39286 0.5 0
1.5 0.5 0
1.39286 0.625 0
1.5 0.625 0
1.28571 0.625 0
1.39286 0.625 0
1.28571 0.75 0
1.39286 0.75 0
1.39286 0.625 0
1.5 0.625 0
1.39286 0.75 0
1.5 0.75 0
1.28571 0.75 0
1.39286 0.75 0
1.28571 0.875 0
1.39286 0.875 0
1.39286 0.75 0
1.5 0.75 0
1.39286 0.875 0
1.5 0.875 0
1.28571 0.875 0
1.39286 0.875 0
1.28571 1 0
1.39286 1 0
1.39286 0.875 0
1.5 0.875 0
1.39286 1 0
1.5 1 0
1.5 0.5 0
1.60714 0.5 0
1.5 0.625 0
1.60714 0.625 0
1.60714 0.5 0
1.71429 0.5 0
1.60714 0.625 0
1.71429 0.625 0
1.5 0.625 0
1.60714 0.625 0
1.5 0.75 0
1.60714 0.75 0
1.60714 0.625 0
1.71429 0.625 0
1.60714 0.75 0
1.71429 0.75 0
1.71429 0.5 0
1.82143 0.5 0
1.71429 0.625 0
1.82143 0.625 0
1.82143 0.5 0
1.92857 0.5 0
1.82143 0.625 0
1.92857 0.625 0
1.71429 0.625 0
1.82143 0.625 0
1.71429 0.75 0
1.82143 0.75 0
1.82143 0.625 0
1.92857 0.625 0
1.82143 0.75 0
1.92857 0.75 0
1.92857 0.5 0
2.03571 0.5 0
1.92857 0.625 0
2.03571 0.625 0
2.03571 0.5 0
2.14286 0.5 0
2.03571 0.625 0
2.14286 0.625 0
1.92857 0.625 0
2.03571 0.625 0
1.92857 0.75 0
2.03571 0.75 0
2.03571 0.625 0
2.14286 0.625 0
2.03571 0.75 0
2.14286 0.75 0
2.14286 0 0
2.25 0 0
2.14286 0.125 0
2.25 0.125 0
2.25 0 0
2.35714 0 0
2.25 0.125 0
2.35714 0.125 0
2.14286 0.125 0
2.25 0.125 0
2.14286 0.25 0
2.25 0.25 0
2.25 0.125 0
2.35714 0.125 0
2.25 0.25 0
2.35714 0.25 0
2.14286 0.25 0
2.25 0.25 0
2.14286 0.375 0
2.25 0.375 0
2.25 0.25 0
2.35714 0.25 0
2.25 0.375 0
2.35714 0.375 0
2.14286 0.375 0
2.25 0.375 0
2.14286 0.5 0
2.25 0.5 0
2.25 0.375 0
2.35714 0.375 0
2.25 0.5 0
2.35714 0.5 0
2.14286 0.5 0
2.25 0.5 0
2.14286 0.625 0
2.25 0.625 0
2.25 0.5 0
2.35714 0.5 0
2.25 0.625 0
2.35714 0.625 0
2.14286 0.625 0
2.25 0.625 0
2.14286 0.75 0
2.25 0.75 0
2.25 0.625 0
2.35714 0.625 0
2.25 0.75 0
2.35714 0.75 0
2.35714 0 0
2.46429 0 0
[...]
POINT_DATA 3648
VECTORS velocity double
0 0 0
0 0 0
0 0 0
-0.0115754 0.0130257 0
0 0 0
-0.0115754 0.0130257 0
0 0 0
-0.00159885 0.0285452 0
0 0 0
0 0 0
-0.0115754 0.0130257 0
-0.0344215 0.0134075 0
-0.0115754 0.0130257 0
-0.0344215 0.0134075 0
-0.00159885 0.0285452 0
-0.00179857 0.0251324 0
0 0 0
0 0 0
-0.0344215 0.0134075 0
-0.0525304 0.00811631 0
-0.0344215 0.0134075 0
-0.0525304 0.00811631 0
-0.00179857 0.0251324 0
-0.00274526 0.0186688 0
-0.00179857 0.0251324 0
-0.00274526 0.0186688 0
0.0206866 0.0159484 0
0.03594 0.0116956 0
0 0 0
0 0 0
-0.0525304 0.00811631 0
-0.058809 -0.000459819 0
-0.0525304 0.00811631 0
-0.058809 -0.000459819 0
-0.00274526 0.0186688 0
0.00319471 -0.0117042 0
-0.00274526 0.0186688 0
0.00319471 -0.0117042 0
0.03594 0.0116956 0
0.0349236 -0.0103725 0
0 0 0
0 0 0
-0.058809 -0.000459819 0
-0.0486088 -0.011114 0
-0.058809 -0.000459819 0
-0.0486088 -0.011114 0
0.00319471 -0.0117042 0
0.00719478 -0.0162808 0
0.00319471 -0.0117042 0
0.00719478 -0.0162808 0
0.0349236 -0.0103725 0
0.0176512 -0.00116329 0
0 0 0
0 0 0
-0.0486088 -0.011114 0
-0.00765551 -0.03895 0
-0.0486088 -0.011114 0
-0.00765551 -0.03895 0
0.00719478 -0.0162808 0
-0.020224 -0.049743 0
0.00719478 -0.0162808 0
-0.020224 -0.049743 0
0.0176512 -0.00116329 0
0.00831528 -0.0225918 0
0 0 0
0 0 0
-0.00765551 -0.03895 0
0.0725455 -0.0557576 0
-0.00765551 -0.03895 0
0.0725455 -0.0557576 0
-0.020224 -0.049743 0
-0.0670822 -0.0820485 0
0 0 0
0 0 0
0.0725455 -0.0557576 0
0.0815374 0.0455987 0
0.0725455 -0.0557576 0
0.0815374 0.0455987 0
-0.0670822 -0.0820485 0
-0.0659486 0.0577637 0
0 0 0
0 0 0
0.0815374 0.0455987 0
0.0279371 0.0167143 0
0.0815374 0.0455987 0
0.0279371 0.0167143 0
-0.0659486 0.0577637 0
-0.0422206 0.0402117 0
0 0 0
0 0 0
0.0279371 0.0167143 0
-0.0105484 0.0269665 0
0.0279371 0.0167143 0
-0.0105484 0.0269665 0
-0.0422206 0.0402117 0
-0.0116837 0.0123015 0
0 0 0
0 0 0
0 0 0
-0.0116793 -0.0131406 0
0 0 0
-0.0116793 -0.0131406 0
0 0 0
-0.0346842 -0.013474 0
0 0 0
-0.0346842 -0.013474 0
0 0 0
-0.0527675 -0.00803049 0
0 0 0
-0.0527675 -0.00803049 0
0 0 0
-0.0588689 0.00057101 0
0 0 0
-0.0588689 0.00057101 0
0 0 0
-0.0485938 0.0110931 0
0 0 0
-0.0485938 0.0110931 0
0 0 0
-0.00755598 0.0390918 0
0 0 0
-0.00755598 0.0390918 0
0 0 0
0.0726917 0.0556714 0
0 0 0
0.0726917 0.0556714 0
0 0 0
0.0816115 -0.0455837 0
0 0 0
0.0816115 -0.0455837 0
0 0 0
0.0280772 -0.0166662 0
0 0 0
0.0280772 -0.0166662 0
0 0 0
-0.0104683 -0.0270748 0
0 0 0
0 0 0
-0.0116793 -0.0131406 0
-0.00161555 -0.0288047 0
-0.0116793 -0.0131406 0
-0.00161555 -0.0288047 0
-0.0346842 -0.013474 0
-0.00177883 -0.0252021 0
-0.0346842 -0.013474 0
-0.00177883 -0.0252021 0
-0.0527675 -0.00803049 0
-0.00267944 -0.0184935 0
-0.0527675 -0.00803049 0
-0.00267944 -0.0184935 0
-0.0588689 0.00057101 0
0.00331066 0.0120035 0
-0.0588689 0.00057101 0
0.00331066 0.0120035 0
-0.0485938 0.0110931 0
0.00739017 0.0162462 0
-0.0485938 0.0110931 0
0.00739017 0.0162462 0
-0.00755598 0.0390918 0
-0.0202257 0.0497651 0
-0.00755598 0.0390918 0
-0.0202257 0.0497651 0
0.0726917 0.0556714 0
-0.067131 0.0820549 0
0.0726917 0.0556714 0
-0.067131 0.0820549 0
0.0816115 -0.0455837 0
-0.0659174 -0.0577993 0
0.0816115 -0.0455837 0
-0.0659174 -0.0577993 0
0.0280772 -0.0166662 0
-0.0422203 -0.0400857 0
0.0280772 -0.0166662 0
-0.0422203 -0.0400857 0
-0.0104683 -0.0270748 0
-0.0116872 -0.0125505 0
-0.00177883 -0.0252021 0
0.0208436 -0.0160268 0
-0.00267944 -0.0184935 0
0.0360371 -0.0115292 0
-0.00267944 -0.0184935 0
0.0360371 -0.0115292 0
0.00331066 0.0120035 0
0.034884 0.0105665 0
0.00331066 0.0120035 0
0.034884 0.0105665 0
0.00739017 0.0162462 0
0.0174247 0.0010888 0
0.00739017 0.0162462 0
0.0174247 0.0010888 0
-0.0202257 0.0497651 0
0.00818653 0.022548 0
0.00663493 0.0211267 0
0.015313 0.0228161 0
0.0034464 0.0117906 0
0.010735 0.0133783 0
0.015313 0.0228161 0
0.0206866 0.0159484 0
0.010735 0.0133783 0
0.0196418 0.00891525 0
0.0034464 0.0117906 0
0.010735 0.0133783 0
0.0520471 -0.00336668 0
0.0741223 -0.00501123 0
0.010735 0.0133783 0
0.0196418 0.00891525 0
0.0741223 -0.00501123 0
0.0930399 -0.0048883 0
0.0206866 0.0159484 0
0.0277774 0.0133314 0
0.0196418 0.00891525 0
0.0250433 0.00603989 0
0.0277774 0.0133314 0
0.03594 0.0116956 0
0.0250433 0.00603989 0
0.0298098 0.00424193 0
0.0196418 0.00891525 0
0.0250433 0.00603989 0
0.0930399 -0.0048883 0
0.109409 -0.0057503 0
0.0250433 0.00603989 0
0.0298098 0.00424193 0
0.109409 -0.0057503 0
0.123346 -0.00633554 0
0.03594 0.0116956 0
0.0399908 0.00153452 0
0.0298098 0.00424193 0
0.0332215 0.000791345 0
0.0399908 0.00153452 0
0.0349236 -0.0103725 0
0.0332215 0.000791345 0
0.0328892 -0.00267352 0
0.0298098 0.00424193 0
0.0332215 0.000791345 0
0.123346 -0.00633554 0
0.13549 -0.007481 0
0.0332215 0.000791345 0
0.0328892 -0.00267352 0
0.13549 -0.007481 0
0.146373 -0.00748764 0
0.0349236 -0.0103725 0
0.0258474 -0.00688447 0
0.0328892 -0.00267352 0
0.0318229 -0.00237216 0
0.0258474 -0.00688447 0
0.0176512 -0.00116329 0
0.0318229 -0.00237216 0
0.0355906 -0.000268749 0
0.0328892 -0.00267352 0
0.0318229 -0.00237216 0
0.146373 -0.00748764 0
0.156054 -0.00853515 0
0.0318229 -0.00237216 0
0.0355906 -0.000268749 0
0.156054 -0.00853515 0
0.1642 -0.00898062 0
0.0176512 -0.00116329 0
0.0113537 -0.0101929 0
0.0355906 -0.000268749 0
0.0386463 -0.00697814 0
0.0113537 -0.0101929 0
0.00831528 -0.0225918 0
0.0386463 -0.00697814 0
0.0311193 -0.0129392 0
0.0355906 -0.000268749 0
0.0386463 -0.00697814 0
0.1642 -0.00898062 0
0.170905 -0.0104023 0
0.0386463 -0.00697814 0
0.0311193 -0.0129392 0
0.170905 -0.0104023 0
0.176756 -0.0078013 0
0.0520383 0.00336939 0
0.240781 0.0132493 0
0.0741311 0.00500395 0
0.233721 0.0122582 0
0.240781 0.0132493 0
0.157758 0.00657511 0
0.233721 0.0122582 0
0.153664 0.00621973 0
0.0741311 0.00500395 0
0.233721 0.0122582 0
0.0930698 0.00488018 0
0.227104 0.0111938 0
0.233721 0.0122582 0
0.153664 0.00621973 0
0.227104 0.0111938 0
0.150028 0.00565825 0
0.0930698 0.00488018 0
0.227104 0.0111938 0
0.109462 0.00575189 0
0.220818 0.0101949 0
0.227104 0.0111938 0
0.150028 0.00565825 0
0.220818 0.0101949 0
0.146845 0.00528209 0
0.109462 0.00575189 0
0.220818 0.0101949 0
0.123427 0.00634985 0
0.214772 0.00996205 0
0.220818 0.0101949 0
0.146845 0.00528209 0
0.214772 0.00996205 0
0.14397 0.0051338 0
0.123427 0.00634985 0
0.214772 0.00996205 0
0.135595 0.00751672 0
0.208743 0.00952371 0
0.214772 0.00996205 0
0.14397 0.0051338 0
0.208743 0.00952371 0
0.141358 0.00494888 0
0.135595 0.00751672 0
0.208743 0.00952371 0
0.146498 0.00752238 0
0.202559 0.00946657 0
0.208743 0.00952371 0
0.141358 0.00494888 0
0.202559 0.00946657 0
0.138975 0.00477785 0
0.146498 0.00752238 0
0.202559 0.00946657 0
0.156201 0.00856876 0
0.196206 0.00902062 0
0.202559 0.00946657 0
0.138975 0.00477785 0
0.196206 0.00902062 0
0.136791 0.00455405 0
0.156201 0.00856876 0
0.196206 0.00902062 0
0.164363 0.00901206 0
0.189858 0.00944803 0
0.196206 0.00902062 0
0.136791 0.00455405 0
0.189858 0.00944803 0
0.134709 0.00476905 0
0.164363 0.00901206 0
0.189858 0.00944803 0
0.171077 0.0104399 0
0.183407 0.00879256 0
0.189858 0.00944803 0
0.134709 0.00476905 0
0.183407 0.00879256 0
0.132801 0.00410736 0
0.171077 0.0104399 0
0.183407 0.00879256 0
0.176933 0.00782376 0
0.17691 0.00759557 0
0.183407 0.00879256 0
0.132801 0.00410736 0
0.17691 0.00759557 0
0.131273 0.00335228 0
0.157953 -0.00658489 0
0.240696 -0.0132513 0
0.15385 -0.00622887 0
0.233655 -0.0122648 0
0.240696 -0.0132513 0
0.0520471 -0.00336668 0
0.233655 -0.0122648 0
0.0741223 -0.00501123 0
0.15385 -0.00622887 0
0.233655 -0.0122648 0
0.150205 -0.00566433 0
0.227053 -0.011198 0
0.233655 -0.0122648 0
0.0741223 -0.00501123 0
0.227053 -0.011198 0
0.0930399 -0.0048883 0
0.150205 -0.00566433 0
0.227053 -0.011198 0
0.147014 -0.00528368 0
0.220783 -0.0101923 0
0.227053 -0.011198 0
0.0930399 -0.0048883 0
0.220783 -0.0101923 0
0.109409 -0.0057503 0
0.147014 -0.00528368 0
0.220783 -0.0101923 0
0.144132 -0.00513086 0
0.21476 -0.00994723 0
0.220783 -0.0101923 0
0.109409 -0.0057503 0
0.21476 -0.00994723 0
0.123346 -0.00633554 0
0.144132 -0.00513086 0
0.21476 -0.00994723 0
0.141516 -0.00494232 0
0.208761 -0.00950241 0
0.21476 -0.00994723 0
0.123346 -0.00633554 0
0.208761 -0.00950241 0
0.13549 -0.007481 0
0.141516 -0.00494232 0
0.208761 -0.00950241 0
0.139129 -0.00477049 0
0.202613 -0.00944159 0
0.208761 -0.00950241 0
0.13549 -0.007481 0
0.202613 -0.00944159 0
0.146373 -0.00748764 0
0.139129 -0.00477049 0
0.202613 -0.00944159 0
0.136939 -0.00454662 0
0.196297 -0.00900009 0
0.202613 -0.00944159 0
0.146373 -0.00748764 0
0.196297 -0.00900009 0
0.156054 -0.00853515 0
0.136939 -0.00454662 0
0.196297 -0.00900009 0
0.134849 -0.00476004 0
0.189982 -0.00942725 0
0.196297 -0.00900009 0
0.156054 -0.00853515 0
0.189982 -0.00942725 0
0.1642 -0.00898062 0
0.134849 -0.00476004 0
0.189982 -0.00942725 0
0.132931 -0.00410429 0
0.183563 -0.00877858 0
0.189982 -0.00942725 0
0.1642 -0.00898062 0
0.183563 -0.00877858 0
0.170905 -0.0104023 0
0.132931 -0.00410429 0
0.183563 -0.00877858 0
0.131391 -0.00335142 0
0.177098 -0.00758536 0
0.183563 -0.00877858 0
0.170905 -0.0104023 0
0.177098 -0.00758536 0
0.176756 -0.0078013 0
0.00674708 -0.0213199 0
0.00349541 -0.0118846 0
0.0154682 -0.0229643 0
0.0108977 -0.0134435 0
0.00349541 -0.0118846 0
0.0520383 0.00336939 0
0.0108977 -0.0134435 0
0.0741311 0.00500395 0
0.0154682 -0.0229643 0
0.0108977 -0.0134435 0
0.0208436 -0.0160268 0
0.0198823 -0.00898456 0
0.0108977 -0.0134435 0
0.0741311 0.00500395 0
0.0198823 -0.00898456 0
0.0930698 0.00488018 0
0.0208436 -0.0160268 0
0.0198823 -0.00898456 0
0.0278878 -0.013288 0
0.0253059 -0.00603431 0
0.0198823 -0.00898456 0
0.0930698 0.00488018 0
0.0253059 -0.00603431 0
0.109462 0.00575189 0
0.0278878 -0.013288 0
0.0253059 -0.00603431 0
0.0360371 -0.0115292 0
0.0299798 -0.00416035 0
0.0253059 -0.00603431 0
0.109462 0.00575189 0
0.0299798 -0.00416035 0
0.123427 0.00634985 0
0.0360371 -0.0115292 0
0.0299798 -0.00416035 0
0.0400567 -0.00135711 0
0.0332671 -0.00070784 0
0.0299798 -0.00416035 0
0.123427 0.00634985 0
0.0332671 -0.00070784 0
0.135595 0.00751672 0
0.0400567 -0.00135711 0
0.0332671 -0.00070784 0
0.034884 0.0105665 0
0.0328465 0.00273905 0
0.0332671 -0.00070784 0
0.135595 0.00751672 0
0.0328465 0.00273905 0
0.146498 0.00752238 0
0.034884 0.0105665 0
0.0328465 0.00273905 0
0.0256897 0.00695733 0
0.031739 0.00239487 0
0.0328465 0.00273905 0
0.146498 0.00752238 0
0.031739 0.00239487 0
0.156201 0.00856876 0
0.0256897 0.00695733 0
0.031739 0.00239487 0
0.0174247 0.0010888 0
0.0355565 0.000230462 0
0.031739 0.00239487 0
0.156201 0.00856876 0
0.0355565 0.000230462 0
0.164363 0.00901206 0
0.0174247 0.0010888 0
0.0355565 0.000230462 0
0.011129 0.0101133 0
0.0387006 0.00697162 0
0.0355565 0.000230462 0
0.164363 0.00901206 0
0.0387006 0.00697162 0
0.171077 0.0104399 0
0.011129 0.0101133 0
0.0387006 0.00697162 0
0.00818653 0.022548 0
0.0312026 0.0129671 0
0.0387006 0.00697162 0
0.171077 0.0104399 0
0.0312026 0.0129671 0
0.176933 0.00782376 0
0 0 0
-0.000361474 0.0146285 0
0 0 0
0.00119453 0.0139024 0
-0.000361474 0.0146285 0
-0.00159885 0.0285452 0
0.00119453 0.0139024 0
0.00275753 0.029072 0
0 0 0
0.00119453 0.0139024 0
0 0 0
0.000102655 0.0126669 0
0.00119453 0.0139024 0
0.00275753 0.029072 0
0.000102655 0.0126669 0
0.00663493 0.0211267 0
-0.00159885 0.0285452 0
-0.00248622 0.026783 0
0.00275753 0.029072 0
0.00399041 0.0261055 0
-0.00248622 0.026783 0
-0.00179857 0.0251324 0
0.00399041 0.0261055 0
0.00672839 0.0220225 0
0.00275753 0.029072 0
0.00399041 0.0261055 0
0.00663493 0.0211267 0
0.015313 0.0228161 0
0.00399041 0.0261055 0
0.00672839 0.0220225 0
0.015313 0.0228161 0
0.0206866 0.0159484 0
-0.020224 -0.049743 0
-0.0427567 -0.0675427 0
-0.00947725 -0.0301246 0
-0.0303497 -0.0365802 0
-0.0427567 -0.0675427 0
-0.0670822 -0.0820485 0
-0.0303497 -0.0365802 0
-0.0614745 -0.048642 0
-0.00947725 -0.0301246 0
-0.0303497 -0.0365802 0
0.00831528 -0.0225918 0
-0.00381302 -0.00520216 0
-0.0303497 -0.0365802 0
-0.0614745 -0.048642 0
-0.00381302 -0.00520216 0
-0.0375998 -0.00484729 0
0.00831528 -0.0225918 0
-0.00381302 -0.00520216 0
0.0311193 -0.0129392 0
0.0290738 0.00134911 0
-0.00381302 -0.00520216 0
-0.0375998 -0.00484729 0
0.0290738 0.00134911 0
0.0458989 0.00824086 0
0.0311193 -0.0129392 0
0.0290738 0.00134911 0
0.176756 -0.0078013 0
0.181234 -0.00714958 0
0.0290738 0.00134911 0
0.0458989 0.00824086 0
0.181234 -0.00714958 0
0.182945 -0.0047659 0
-0.0670822 -0.0820485 0
-0.0798932 -0.0102167 0
-0.0614745 -0.048642 0
-0.0757413 -0.0108683 0
-0.0798932 -0.0102167 0
-0.0659486 0.0577637 0
-0.0757413 -0.0108683 0
-0.0623164 0.0259996 0
-0.0614745 -0.048642 0
-0.0757413 -0.0108683 0
-0.0375998 -0.00484729 0
-0.0427306 -0.0311428 0
-0.0757413 -0.0108683 0
-0.0623164 0.0259996 0
-0.0427306 -0.0311428 0
-0.0387181 0.0251721 0
-0.0659486 0.0577637 0
-0.0457947 0.0483775 0
-0.0623164 0.0259996 0
-0.0478703 0.0396747 0
-0.0457947 0.0483775 0
-0.0422206 0.0402117 0
-0.0478703 0.0396747 0
-0.0328739 0.0271738 0
-0.0623164 0.0259996 0
-0.0478703 0.0396747 0
-0.0387181 0.0251721 0
-0.0422428 0.0281511 0
-0.0478703 0.0396747 0
-0.0328739 0.0271738 0
-0.0422428 0.0281511 0
-0.0225519 -0.00167466 0
-0.0422206 0.0402117 0
-0.0372369 0.0271259 0
-0.0328739 0.0271738 0
-0.001726 -0.00210893 0
-0.0372369 0.0271259 0
-0.0116837 0.0123015 0
-0.001726 -0.00210893 0
0.0135011 -0.00654011 0
-0.0328739 0.0271738 0
-0.001726 -0.00210893 0
-0.0225519 -0.00167466 0
-0.0230881 -0.00873085 0
-0.001726 -0.00210893 0
0.0135011 -0.00654011 0
-0.0230881 -0.00873085 0
-0.0295578 -0.00982927 0
0 0 0
0 0 0
-0.0031455 0.00668821 0
-0.0382405 0.0341035 0
0 0 0
0 0 0
-0.0382405 0.0341035 0
-0.037565 -0.033747 0
-0.0031455 0.00668821 0
-0.0382405 0.0341035 0
-0.0105484 0.0269665 0
0.0125525 0.0277246 0
-0.0382405 0.0341035 0
-0.037565 -0.033747 0
0.0125525 0.0277246 0
0.0144665 -0.0296337 0
-0.0105484 0.0269665 0
0.0125525 0.0277246 0
-0.0113942 0.0369314 0
0.00710919 -0.0296811 0
0.0125525 0.0277246 0
0.0144665 -0.0296337 0
0.00710919 -0.0296811 0
-0.00362916 0.0373303 0
-0.0113942 0.0369314 0
0.00710919 -0.0296811 0
-0.0116837 0.0123015 0
-0.00643695 -0.0308987 0
0.00710919 -0.0296811 0
-0.00362916 0.0373303 0
-0.00643695 -0.0308987 0
-0.0206657 0.0668047 0
-0.0116837 0.0123015 0
-0.00643695 -0.0308987 0
0.0135011 -0.00654011 0
-0.00990807 0.0086668 0
-0.00643695 -0.0308987 0
-0.0206657 0.0668047 0
-0.00990807 0.0086668 0
-0.0206994 0.0558834 0
0.0135011 -0.00654011 0
-0.00990807 0.0086668 0
-0.0295578 -0.00982927 0
-0.0111444 0.0176719 0
-0.00990807 0.0086668 0
-0.0206994 0.0558834 0
-0.0111444 0.0176719 0
0.009964 0.035038 0
0 0 0
0 0 0
-0.037565 -0.033747 0
-0.018406 0.0102892 0
0 0 0
0 0 0
-0.018406 0.0102892 0
-0.0232755 -0.00371325 0
-0.037565 -0.033747 0
-0.018406 0.0102892 0
0.0144665 -0.0296337 0
-0.0293087 0.0337159 0
-0.018406 0.0102892 0
-0.0232755 -0.00371325 0
-0.0293087 0.0337159 0
-0.0442679 -0.00231599 0
0.0144665 -0.0296337 0
-0.0293087 0.0337159 0
-0.00362916 0.0373303 0
-0.0284264 0.0466196 0
-0.0293087 0.0337159 0
-0.0442679 -0.00231599 0
-0.0284264 0.0466196 0
-0.0267886 0.00121219 0
-0.00362916 0.0373303 0
-0.0284264 0.0466196 0
-0.0206657 0.0668047 0
-0.00353216 0.0259922 0
-0.0284264 0.0466196 0
-0.0267886 0.00121219 0
-0.00353216 0.0259922 0
0.0180033 -0.00507473 0
-0.0206657 0.0668047 0
-0.00353216 0.0259922 0
-0.0206994 0.0558834 0
-0.0161002 0.0114304 0
-0.00353216 0.0259922 0
0.0180033 -0.00507473 0
-0.0161002 0.0114304 0
-0.0159256 -0.0156814 0
-0.0206994 0.0558834 0
-0.0161002 0.0114304 0
0.009964 0.035038 0
0.0205917 0.0140931 0
-0.0161002 0.0114304 0
-0.0159256 -0.0156814 0
0.0205917 0.0140931 0
0.00584035 -0.00144061 0
0 0 0
0 0 0
-0.0232755 -0.00371325 0
-0.0170721 -0.00409673 0
0 0 0
0 0 0
-0.0170721 -0.00409673 0
-0.00411485 -0.0107459 0
-0.0232755 -0.00371325 0
-0.0170721 -0.00409673 0
-0.0442679 -0.00231599 0
-0.042268 -0.0157508 0
-0.0170721 -0.00409673 0
-0.00411485 -0.0107459 0
-0.042268 -0.0157508 0
-0.0286601 -0.0295567 0
-0.0442679 -0.00231599 0
-0.042268 -0.0157508 0
-0.0267886 0.00121219 0
-0.0303275 -0.0178358 0
-0.042268 -0.0157508 0
-0.0286601 -0.0295567 0
-0.0303275 -0.0178358 0
-0.031002 -0.0424986 0
-0.0267886 0.00121219 0
-0.0303275 -0.0178358 0
0.0180033 -0.00507473 0
0.0101702 0.00125305 0
-0.0303275 -0.0178358 0
-0.031002 -0.0424986 0
0.0101702 0.00125305 0
-0.0107626 -0.0364572 0
0.0180033 -0.00507473 0
0.0101702 0.00125305 0
-0.0159256 -0.0156814 0
-0.00404515 0.00710693 0
0.0101702 0.00125305 0
-0.0107626 -0.0364572 0
-0.00404515 0.00710693 0
-0.000694626 -0.0218387 0
-0.0159256 -0.0156814 0
-0.00404515 0.00710693 0
0.00584035 -0.00144061 0
0.00160668 -0.0167552 0
-0.00404515 0.00710693 0
-0.000694626 -0.0218387 0
0.00160668 -0.0167552 0
0.0027888 -0.0034827 0
0 0 0
0 0 0
-0.00411485 -0.0107459 0
0.00263185 0.00289623 0
0 0 0
0 0 0
0.00263185 0.00289623 0
0 0 0
-0.00411485 -0.0107459 0
0.00263185 0.00289623 0
-0.0286601 -0.0295567 0
-0.0107669 -0.00688282 0
0.00263185 0.00289623 0
0 0 0
-0.0107669 -0.00688282 0
0 0 0
-0.0286601 -0.0295567 0
-0.0107669 -0.00688282 0
-0.031002 -0.0424986 0
-0.0133075 -0.035521 0
-0.0107669 -0.00688282 0
0 0 0
-0.0133075 -0.035521 0
0 0 0
-0.031002 -0.0424986 0
-0.0133075 -0.035521 0
-0.0107626 -0.0364572 0
-0.00997036 -0.0629647 0
-0.0133075 -0.035521 0
0 0 0
-0.00997036 -0.0629647 0
0 0 0
-0.0107626 -0.0364572 0
-0.00997036 -0.0629647 0
-0.000694626 -0.0218387 0
-0.00206563 -0.0771522 0
-0.00997036 -0.0629647 0
0 0 0
-0.00206563 -0.0771522 0
0 0 0
-0.000694626 -0.0218387 0
-0.00206563 -0.0771522 0
0.0027888 -0.0034827 0
-0.0052727 -0.0857184 0
-0.00206563 -0.0771522 0
0 0 0
-0.0052727 -0.0857184 0
0 0 0
0.176933 0.00782376 0
0.17691 0.00759557 0
0.181414 0.0071767 0
0.171447 0.00574728 0
0.17691 0.00759557 0
0.131273 0.00335228 0
0.171447 0.00574728 0
0.130111 0.00261202 0
0.181414 0.0071767 0
0.171447 0.00574728 0
0.183117 0.00477758 0
0.168159 0.003748 0
0.171447 0.00574728 0
0.130111 0.00261202 0
0.168159 0.003748 0
0.128988 0.00184336 0
0.165783 0.0067922 0
0.107563 0.00597389 0
0.161767 0.00664325 0
0.110127 0.00577995 0
0.107563 0.00597389 0
0.227622 1.01678e-06 0
0.110127 0.00577995 0
0.215042 9.68549e-07 0
0.161767 0.00664325 0
0.110127 0.00577995 0
0.157758 0.00657511 0
0.112257 0.00528276 0
0.110127 0.00577995 0
0.215042 9.68549e-07 0
0.112257 0.00528276 0
0.20356 1.15102e-06 0
0.157758 0.00657511 0
0.112257 0.00528276 0
0.153664 0.00621973 0
0.114212 0.00503288 0
0.112257 0.00528276 0
0.20356 1.15102e-06 0
0.114212 0.00503288 0
0.192983 1.33362e-06 0
0.153664 0.00621973 0
0.114212 0.00503288 0
0.150028 0.00565825 0
0.115909 0.0045551 0
0.114212 0.00503288 0
0.192983 1.33362e-06 0
0.115909 0.0045551 0
0.183302 2.13327e-06 0
0.150028 0.00565825 0
0.115909 0.0045551 0
0.146845 0.00528209 0
0.117321 0.00432286 0
0.115909 0.0045551 0
0.183302 2.13327e-06 0
0.117321 0.00432286 0
0.174534 3.01985e-06 0
0.146845 0.00528209 0
0.117321 0.00432286 0
0.14397 0.0051338 0
0.118415 0.00391721 0
0.117321 0.00432286 0
0.174534 3.01985e-06 0
0.118415 0.00391721 0
0.166675 3.86661e-06 0
0.14397 0.0051338 0
0.118415 0.00391721 0
0.141358 0.00494888 0
0.119149 0.00386246 0
0.118415 0.00391721 0
0.166675 3.86661e-06 0
0.119149 0.00386246 0
0.159634 4.56897e-06 0
0.141358 0.00494888 0
0.119149 0.00386246 0
0.138975 0.00477785 0
0.119534 0.00344377 0
0.119149 0.00386246 0
0.159634 4.56897e-06 0
0.119534 0.00344377 0
0.153273 4.68076e-06 0
0.138975 0.00477785 0
0.119534 0.00344377 0
0.136791 0.00455405 0
0.119571 0.00346287 0
0.119534 0.00344377 0
0.153273 4.68076e-06 0
0.119571 0.00346287 0
0.147574 6.04763e-06 0
0.136791 0.00455405 0
0.119571 0.00346287 0
0.134709 0.00476905 0
0.119324 0.00310073 0
0.119571 0.00346287 0
0.147574 6.04763e-06 0
0.119324 0.00310073 0
0.142548 6.03937e-06 0
0.134709 0.00476905 0
0.119324 0.00310073 0
0.132801 0.00410736 0
0.118947 0.00309976 0
0.119324 0.00310073 0
0.142548 6.03937e-06 0
0.118947 0.00309976 0
0.138043 4.0011e-06 0
0.132801 0.00410736 0
0.118947 0.00309976 0
0.131273 0.00335228 0
0.118614 0.00236516 0
0.118947 0.00309976 0
0.138043 4.0011e-06 0