# vtk DataFile Version 3.0
#This file was generated by the deal.II library on 2026/5/28 at 17:13:27
ASCII
DATASET UNSTRUCTURED_GRID

POINTS 1600 double
0 0 0
0.05 0 0
0 0.05 0
0.05 0.05 0
0.05 0 0
0.1 0 0
0.05 0.05 0
0.1 0.05 0
0 0.05 0
0.05 0.05 0
0 0.1 0
0.05 0.1 0
0.05 0.05 0
0.1 0.05 0
0.05 0.1 0
0.1 0.1 0
0.1 0 0
0.15 0 0
0.1 0.05 0
0.15 0.05 0
0.15 0 0
0.2 0 0
0.15 0.05 0
0.2 0.05 0
0.1 0.05 0
0.15 0.05 0
0.1 0.1 0
0.15 0.1 0
0.15 0.05 0
0.2 0.05 0
0.15 0.1 0
0.2 0.1 0
0 0.1 0
0.05 0.1 0
0 0.15 0
0.05 0.15 0
0.05 0.1 0
0.1 0.1 0
0.05 0.15 0
0.1 0.15 0
0 0.15 0
0.05 0.15 0
0 0.2 0
0.05 0.2 0
0.05 0.15 0
0.1 0.15 0
0.05 0.2 0
0.1 0.2 0
0.1 0.1 0
0.15 0.1 0
0.1 0.15 0
0.15 0.15 0
0.15 0.1 0
0.2 0.1 0
0.15 0.15 0
0.2 0.15 0
0.1 0.15 0
0.15 0.15 0
0.1 0.2 0
0.15 0.2 0
0.15 0.15 0
0.2 0.15 0
0.15 0.2 0
0.2 0.2 0
0 0.2 0
0.05 0.2 0
0 0.25 0
0.05 0.25 0
0.05 0.2 0
0.1 0.2 0
0.05 0.25 0
0.1 0.25 0
0 0.25 0
0.05 0.25 0
0 0.3 0
0.05 0.3 0
0.05 0.25 0
0.1 0.25 0
0.05 0.3 0
0.1 0.3 0
0.1 0.2 0
0.15 0.2 0
0.1 0.25 0
0.15 0.25 0
0.15 0.2 0
0.2 0.2 0
0.15 0.25 0
0.2 0.25 0
0.1 0.25 0
0.15 0.25 0
0.1 0.3 0
0.15 0.3 0
0.15 0.25 0
0.2 0.25 0
0.15 0.3 0
0.2 0.3 0
0 0.3 0
0.05 0.3 0
0 0.35 0
0.05 0.35 0
0.05 0.3 0
0.1 0.3 0
0.05 0.35 0
0.1 0.35 0
0 0.35 0
0.05 0.35 0
0 0.4 0
0.05 0.4 0
0.05 0.35 0
0.1 0.35 0
0.05 0.4 0
0.1 0.4 0
0.1 0.3 0
0.15 0.3 0
0.1 0.35 0
0.15 0.35 0
0.15 0.3 0
0.2 0.3 0
0.15 0.35 0
0.2 0.35 0
0.1 0.35 0
0.15 0.35 0
0.1 0.4 0
0.15 0.4 0
0.15 0.35 0
0.2 0.35 0
0.15 0.4 0
0.2 0.4 0
0 0.4 0
0.05 0.4 0
0 0.45 0
0.05 0.45 0
0.05 0.4 0
0.1 0.4 0
0.05 0.45 0
0.1 0.45 0
0 0.45 0
0.05 0.45 0
0 0.5 0
0.05 0.5 0
0.05 0.45 0
0.1 0.45 0
0.05 0.5 0
0.1 0.5 0
0.1 0.4 0
0.15 0.4 0
0.1 0.45 0
0.15 0.45 0
0.15 0.4 0
0.2 0.4 0
0.15 0.45 0
0.2 0.45 0
0.1 0.45 0
0.15 0.45 0
0.1 0.5 0
0.15 0.5 0
0.15 0.45 0
0.2 0.45 0
0.15 0.5 0
0.2 0.5 0
0 0.5 0
0.05 0.5 0
0 0.55 0
0.05 0.55 0
0.05 0.5 0
0.1 0.5 0
0.05 0.55 0
0.1 0.55 0
0 0.55 0
0.05 0.55 0
0 0.6 0
0.05 0.6 0
0.05 0.55 0
0.1 0.55 0
0.05 0.6 0
0.1 0.6 0
0.1 0.5 0
0.15 0.5 0
0.1 0.55 0
0.15 0.55 0
0.15 0.5 0
0.2 0.5 0
0.15 0.55 0
0.2 0.55 0
0.1 0.55 0
0.15 0.55 0
0.1 0.6 0
0.15 0.6 0
0.15 0.55 0
0.2 0.55 0
0.15 0.6 0
0.2 0.6 0
0 0.6 0
0.05 0.6 0
0 0.65 0
0.05 0.65 0
0.05 0.6 0
0.1 0.6 0
0.05 0.65 0
0.1 0.65 0
0 0.65 0
0.05 0.65 0
0 0.7 0
0.05 0.7 0
0.05 0.65 0
0.1 0.65 0
0.05 0.7 0
0.1 0.7 0
0.1 0.6 0
0.15 0.6 0
0.1 0.65 0
0.15 0.65 0
0.15 0.6 0
0.2 0.6 0
0.15 0.65 0
0.2 0.65 0
0.1 0.65 0
0.15 0.65 0
0.1 0.7 0
0.15 0.7 0
0.15 0.65 0
0.2 0.65 0
0.15 0.7 0
0.2 0.7 0
0 0.7 0
0.05 0.7 0
0 0.75 0
0.05 0.75 0
0.05 0.7 0
0.1 0.7 0
0.05 0.75 0
0.1 0.75 0
0 0.75 0
0.05 0.75 0
0 0.8 0
0.05 0.8 0
0.05 0.75 0
0.1 0.75 0
0.05 0.8 0
0.1 0.8 0
0.1 0.7 0
0.15 0.7 0
0.1 0.75 0
0.15 0.75 0
0.15 0.7 0
0.2 0.7 0
0.15 0.75 0
0.2 0.75 0
0.1 0.75 0
0.15 0.75 0
0.1 0.8 0
0.15 0.8 0
0.15 0.75 0
0.2 0.75 0
0.15 0.8 0
0.2 0.8 0
0 0.8 0
0.05 0.8 0
0 0.85 0
0.05 0.85 0
0.05 0.8 0
0.1 0.8 0
0.05 0.85 0
0.1 0.85 0
0 0.85 0
0.05 0.85 0
0 0.9 0
0.05 0.9 0
0.05 0.85 0
0.1 0.85 0
0.05 0.9 0
0.1 0.9 0
0.1 0.8 0
0.15 0.8 0
0.1 0.85 0
0.15 0.85 0
0.15 0.8 0
0.2 0.8 0
0.15 0.85 0
0.2 0.85 0
0.1 0.85 0
0.15 0.85 0
0.1 0.9 0
0.15 0.9 0
0.15 0.85 0
0.2 0.85 0
0.15 0.9 0
0.2 0.9 0
0 0.9 0
0.05 0.9 0
0 0.95 0
0.05 0.95 0
0.05 0.9 0
0.1 0.9 0
0.05 0.95 0
0.1 0.95 0
0 0.95 0
0.05 0.95 0
0 1 0
0.05 1 0
0.05 0.95 0
0.1 0.95 0
0.05 1 0
0.1 1 0
0.1 0.9 0
0.15 0.9 0
0.1 0.95 0
0.15 0.95 0
0.15 0.9 0
0.2 0.9 0
0.15 0.95 0
0.2 0.95 0
0.1 0.95 0
0.15 0.95 0
0.1 1 0
0.15 1 0
0.15 0.95 0
0.2 0.95 0
0.15 1 0
0.2 1 0
0.2 0 0
0.25 0 0
0.2 0.05 0
0.25 0.05 0
0.25 0 0
0.3 0 0
0.25 0.05 0
0.3 0.05 0
0.2 0.05 0
0.25 0.05 0
0.2 0.1 0
0.25 0.1 0
0.25 0.05 0
0.3 0.05 0
0.25 0.1 0
0.3 0.1 0
0.3 0 0
0.35 0 0
0.3 0.05 0
0.35 0.05 0
0.35 0 0
0.4 0 0
0.35 0.05 0
0.4 0.05 0
0.3 0.05 0
0.35 0.05 0
0.3 0.1 0
0.35 0.1 0
0.35 0.05 0
0.4 0.05 0
0.35 0.1 0
0.4 0.1 0
0.2 0.1 0
0.25 0.1 0
0.2 0.15 0
0.25 0.15 0
0.25 0.1 0
0.3 0.1 0
0.25 0.15 0
0.3 0.15 0
0.2 0.15 0
0.25 0.15 0
0.2 0.2 0
0.25 0.2 0
0.25 0.15 0
0.3 0.15 0
0.25 0.2 0
0.3 0.2 0
0.3 0.1 0
0.35 0.1 0
0.3 0.15 0
0.35 0.15 0
0.35 0.1 0
0.4 0.1 0
0.35 0.15 0
0.4 0.15 0
0.3 0.15 0
0.35 0.15 0
0.3 0.2 0
0.35 0.2 0
0.35 0.15 0
0.4 0.15 0
0.35 0.2 0
0.4 0.2 0
0.2 0.2 0
0.25 0.2 0
0.2 0.25 0
0.25 0.25 0
0.25 0.2 0
0.3 0.2 0
0.25 0.25 0
0.3 0.25 0
0.2 0.25 0
0.25 0.25 0
0.2 0.3 0
0.25 0.3 0
0.25 0.25 0
0.3 0.25 0
0.25 0.3 0
0.3 0.3 0
0.3 0.2 0
0.35 0.2 0
0.3 0.25 0
0.35 0.25 0
0.35 0.2 0
0.4 0.2 0
0.35 0.25 0
0.4 0.25 0
0.3 0.25 0
0.35 0.25 0
0.3 0.3 0
0.35 0.3 0
0.35 0.25 0
0.4 0.25 0
0.35 0.3 0
0.4 0.3 0
0.2 0.3 0
0.25 0.3 0
0.2 0.35 0
0.25 0.35 0
0.25 0.3 0
0.3 0.3 0
0.25 0.35 0
0.3 0.35 0
0.2 0.35 0
0.25 0.35 0
0.2 0.4 0
0.25 0.4 0
0.25 0.35 0
0.3 0.35 0
0.25 0.4 0
0.3 0.4 0
0.3 0.3 0
0.35 0.3 0
0.3 0.35 0
0.35 0.35 0
0.35 0.3 0
0.4 0.3 0
0.35 0.35 0
0.4 0.35 0
0.3 0.35 0
0.35 0.35 0
0.3 0.4 0
0.35 0.4 0
0.35 0.35 0
0.4 0.35 0
0.35 0.4 0
0.4 0.4 0
0.2 0.4 0
0.25 0.4 0
0.2 0.45 0
0.25 0.45 0
0.25 0.4 0
0.3 0.4 0
0.25 0.45 0
0.3 0.45 0
0.2 0.45 0
0.25 0.45 0
0.2 0.5 0
0.25 0.5 0
0.25 0.45 0
0.3 0.45 0
0.25 0.5 0
0.3 0.5 0
0.3 0.4 0
0.35 0.4 0
0.3 0.45 0
0.35 0.45 0
0.35 0.4 0
0.4 0.4 0
0.35 0.45 0
0.4 0.45 0
0.3 0.45 0
0.35 0.45 0
0.3 0.5 0
0.35 0.5 0
0.35 0.45 0
0.4 0.45 0
0.35 0.5 0
0.4 0.5 0
0.2 0.5 0
0.25 0.5 0
0.2 0.55 0
0.25 0.55 0
0.25 0.5 0
0.3 0.5 0
0.25 0.55 0
0.3 0.55 0
0.2 0.55 0
0.25 0.55 0
0.2 0.6 0
0.25 0.6 0
0.25 0.55 0
0.3 0.55 0
0.25 0.6 0
0.3 0.6 0
0.3 0.5 0
0.35 0.5 0
0.3 0.55 0
0.35 0.55 0
0.35 0.5 0
0.4 0.5 0
0.35 0.55 0
0.4 0.55 0
0.3 0.55 0
0.35 0.55 0
0.3 0.6 0
0.35 0.6 0
0.35 0.55 0
0.4 0.55 0
0.35 0.6 0
0.4 0.6 0
0.2 0.6 0
0.25 0.6 0
0.2 0.65 0
0.25 0.65 0
0.25 0.6 0
0.3 0.6 0
0.25 0.65 0
0.3 0.65 0
0.2 0.65 0
0.25 0.65 0
0.2 0.7 0
0.25 0.7 0
0.25 0.65 0
0.3 0.65 0
0.25 0.7 0
0.3 0.7 0
0.3 0.6 0
0.35 0.6 0
0.3 0.65 0
0.35 0.65 0
0.35 0.6 0
0.4 0.6 0
0.35 0.65 0
0.4 0.65 0
0.3 0.65 0
0.35 0.65 0
0.3 0.7 0
0.35 0.7 0
0.35 0.65 0
0.4 0.65 0
0.35 0.7 0
0.4 0.7 0
0.2 0.7 0
0.25 0.7 0
0.2 0.75 0
0.25 0.75 0
0.25 0.7 0
0.3 0.7 0
0.25 0.75 0
0.3 0.75 0
0.2 0.75 0
0.25 0.75 0
0.2 0.8 0
0.25 0.8 0
0.25 0.75 0
0.3 0.75 0
0.25 0.8 0
0.3 0.8 0
0.3 0.7 0
0.35 0.7 0
0.3 0.75 0
0.35 0.75 0
0.35 0.7 0
0.4 0.7 0
0.35 0.75 0
0.4 0.75 0
0.3 0.75 0
0.35 0.75 0
0.3 0.8 0
0.35 0.8 0
0.35 0.75 0
0.4 0.75 0
0.35 0.8 0
0.4 0.8 0
0.2 0.8 0
0.25 0.8 0
0.2 0.85 0
0.25 0.85 0
0.25 0.8 0
0.3 0.8 0
0.25 0.85 0
0.3 0.85 0
0.2 0.85 0
0.25 0.85 0
0.2 0.9 0
0.25 0.9 0
0.25 0.85 0
0.3 0.85 0
0.25 0.9 0
0.3 0.9 0
0.3 0.8 0
0.35 0.8 0
0.3 0.85 0
0.35 0.85 0
0.35 0.8 0
0.4 0.8 0
0.35 0.85 0
0.4 0.85 0
0.3 0.85 0
0.35 0.85 0
0.3 0.9 0
0.35 0.9 0
0.35 0.85 0
0.4 0.85 0
0.35 0.9 0
0.4 0.9 0
0.2 0.9 0
0.25 0.9 0
0.2 0.95 0
0.25 0.95 0
0.25 0.9 0
0.3 0.9 0
0.25 0.95 0
0.3 0.95 0
0.2 0.95 0
0.25 0.95 0
0.2 1 0
0.25 1 0
0.25 0.95 0
0.3 0.95 0
0.25 1 0
0.3 1 0
0.3 0.9 0
0.35 0.9 0
0.3 0.95 0
0.35 0.95 0
0.35 0.9 0
0.4 0.9 0
0.35 0.95 0
0.4 0.95 0
0.3 0.95 0
0.35 0.95 0
0.3 1 0
0.35 1 0
0.35 0.95 0
0.4 0.95 0
0.35 1 0
0.4 1 0
0.4 0 0
0.45 0 0
0.4 0.05 0
0.45 0.05 0
0.45 0 0
0.5 0 0
0.45 0.05 0
0.5 0.05 0
0.4 0.05 0
0.45 0.05 0
0.4 0.1 0
0.45 0.1 0
0.45 0.05 0
0.5 0.05 0
0.45 0.1 0
0.5 0.1 0
0.5 0 0
0.55 0 0
0.5 0.05 0
0.55 0.05 0
0.55 0 0
0.6 0 0
0.55 0.05 0
0.6 0.05 0
0.5 0.05 0
0.55 0.05 0
0.5 0.1 0
0.55 0.1 0
0.55 0.05 0
0.6 0.05 0
0.55 0.1 0
0.6 0.1 0
0.4 0.1 0
0.45 0.1 0
0.4 0.15 0
0.45 0.15 0
0.45 0.1 0
0.5 0.1 0
0.45 0.15 0
0.5 0.15 0
0.4 0.15 0
0.45 0.15 0
0.4 0.2 0
0.45 0.2 0
0.45 0.15 0
0.5 0.15 0
0.45 0.2 0
0.5 0.2 0
0.5 0.1 0
0.55 0.1 0
0.5 0.15 0
0.55 0.15 0
0.55 0.1 0
0.6 0.1 0
0.55 0.15 0
0.6 0.15 0
0.5 0.15 0
0.55 0.15 0
0.5 0.2 0
0.55 0.2 0
0.55 0.15 0
0.6 0.15 0
0.55 0.2 0
0.6 0.2 0
0.4 0.2 0
0.45 0.2 0
0.4 0.25 0
0.45 0.25 0
0.45 0.2 0
0.5 0.2 0
0.45 0.25 0
0.5 0.25 0
0.4 0.25 0
0.45 0.25 0
0.4 0.3 0
0.45 0.3 0
0.45 0.25 0
0.5 0.25 0
0.45 0.3 0
0.5 0.3 0
0.5 0.2 0
0.55 0.2 0
0.5 0.25 0
0.55 0.25 0
0.55 0.2 0
0.6 0.2 0
0.55 0.25 0
0.6 0.25 0
0.5 0.25 0
0.55 0.25 0
0.5 0.3 0
0.55 0.3 0
0.55 0.25 0
0.6 0.25 0
0.55 0.3 0
0.6 0.3 0
0.4 0.3 0
0.45 0.3 0
0.4 0.35 0
0.45 0.35 0
0.45 0.3 0
0.5 0.3 0
0.45 0.35 0
0.5 0.35 0
0.4 0.35 0
0.45 0.35 0
0.4 0.4 0
0.45 0.4 0
0.45 0.35 0
0.5 0.35 0
0.45 0.4 0
0.5 0.4 0
0.5 0.3 0
0.55 0.3 0
0.5 0.35 0
0.55 0.35 0
0.55 0.3 0
0.6 0.3 0
0.55 0.35 0
0.6 0.35 0
0.5 0.35 0
0.55 0.35 0
0.5 0.4 0
0.55 0.4 0
0.55 0.35 0
0.6 0.35 0
0.55 0.4 0
0.6 0.4 0
0.4 0.4 0
0.45 0.4 0
0.4 0.45 0
0.45 0.45 0
0.45 0.4 0
0.5 0.4 0
0.45 0.45 0
0.5 0.45 0
0.4 0.45 0
0.45 0.45 0
0.4 0.5 0
0.45 0.5 0
0.45 0.45 0
0.5 0.45 0
0.45 0.5 0
0.5 0.5 0
0.5 0.4 0
0.55 0.4 0
0.5 0.45 0
0.55 0.45 0
0.55 0.4 0
0.6 0.4 0
0.55 0.45 0
0.6 0.45 0
0.5 0.45 0
0.55 0.45 0
0.5 0.5 0
0.55 0.5 0
0.55 0.45 0
0.6 0.45 0
0.55 0.5 0
0.6 0.5 0
0.4 0.5 0
0.45 0.5 0
0.4 0.55 0
0.45 0.55 0
0.45 0.5 0
0.5 0.5 0
0.45 0.55 0
0.5 0.55 0
0.4 0.55 0
0.45 0.55 0
0.4 0.6 0
0.45 0.6 0
0.45 0.55 0
0.5 0.55 0
0.45 0.6 0
0.5 0.6 0
0.5 0.5 0
0.55 0.5 0
0.5 0.55 0
0.55 0.55 0
0.55 0.5 0
0.6 0.5 0
0.55 0.55 0
0.6 0.55 0
0.5 0.55 0
0.55 0.55 0
0.5 0.6 0
0.55 0.6 0
0.55 0.55 0
0.6 0.55 0
0.55 0.6 0
0.6 0.6 0
0.4 0.6 0
0.45 0.6 0
0.4 0.65 0
0.45 0.65 0
0.45 0.6 0
0.5 0.6 0
0.45 0.65 0
0.5 0.65 0
0.4 0.65 0
0.45 0.65 0
0.4 0.7 0
0.45 0.7 0
0.45 0.65 0
0.5 0.65 0
0.45 0.7 0
0.5 0.7 0
0.5 0.6 0
0.55 0.6 0
0.5 0.65 0
0.55 0.65 0
0.55 0.6 0
0.6 0.6 0
0.55 0.65 0
0.6 0.65 0
0.5 0.65 0
0.55 0.65 0
0.5 0.7 0
0.55 0.7 0
0.55 0.65 0
0.6 0.65 0
0.55 0.7 0
0.6 0.7 0
0.4 0.7 0
0.45 0.7 0
0.4 0.75 0
0.45 0.75 0
0.45 0.7 0
0.5 0.7 0
0.45 0.75 0
0.5 0.75 0
0.4 0.75 0
0.45 0.75 0
0.4 0.8 0
0.45 0.8 0
0.45 0.75 0
0.5 0.75 0
0.45 0.8 0
0.5 0.8 0
0.5 0.7 0
0.55 0.7 0
0.5 0.75 0
0.55 0.75 0
0.55 0.7 0
0.6 0.7 0
0.55 0.75 0
0.6 0.75 0
0.5 0.75 0
0.55 0.75 0
0.5 0.8 0
0.55 0.8 0
0.55 0.75 0
0.6 0.75 0
0.55 0.8 0
0.6 0.8 0
0.4 0.8 0
0.45 0.8 0
0.4 0.85 0
0.45 0.85 0
0.45 0.8 0
0.5 0.8 0
0.45 0.85 0
0.5 0.85 0
0.4 0.85 0
0.45 0.85 0
0.4 0.9 0
0.45 0.9 0
0.45 0.85 0
[...]
POINT_DATA 1600
VECTORS velocity double
0 0 0
0.156434 0 0
0 -0.156434 0
0.154508 -0.154509 0
0.156434 0 0
0.309017 0 0
0.154508 -0.154509 0
0.305212 -0.148778 0
0 -0.156434 0
0.154508 -0.154509 0
0 -0.309017 0
0.148778 -0.305213 0
0.154508 -0.154509 0
0.305212 -0.148778 0
0.148778 -0.305213 0
0.293893 -0.293893 0
0.309017 0 0
0.45399 0 0
0.305212 -0.148778 0
0.448401 -0.139384 0
0.45399 0 0
0.587785 0 0
0.448401 -0.139384 0
0.580549 -0.126558 0
0.305212 -0.148778 0
0.448401 -0.139384 0
0.293893 -0.293893 0
0.431771 -0.275336 0
0.448401 -0.139384 0
0.580549 -0.126558 0
0.431771 -0.275336 0
0.559017 -0.25 0
0 -0.309017 0
0.148778 -0.305213 0
0 -0.45399 0
0.139384 -0.448401 0
0.148778 -0.305213 0
0.293893 -0.293893 0
0.139384 -0.448401 0
0.275336 -0.431771 0
0 -0.45399 0
0.139384 -0.448401 0
0 -0.587785 0
0.126558 -0.580549 0
0.139384 -0.448401 0
0.275336 -0.431771 0
0.126558 -0.580549 0
0.25 -0.559017 0
0.293893 -0.293893 0
0.431771 -0.275336 0
0.275336 -0.431771 0
0.404509 -0.404509 0
0.431771 -0.275336 0
0.559017 -0.25 0
0.404509 -0.404509 0
0.523721 -0.367286 0
0.275336 -0.431771 0
0.404509 -0.404509 0
0.25 -0.559017 0
0.367286 -0.523721 0
0.404509 -0.404509 0
0.523721 -0.367286 0
0.367286 -0.523721 0
0.475528 -0.475529 0
0 -0.587785 0
0.126558 -0.580549 0
0 -0.707107 0
0.110616 -0.698401 0
0.126558 -0.580549 0
0.25 -0.559017 0
0.110616 -0.698401 0
0.218508 -0.672499 0
0 -0.707107 0
0.110616 -0.698401 0
0 -0.809017 0
0.0919499 -0.799057 0
0.110616 -0.698401 0
0.218508 -0.672499 0
0.0919499 -0.799057 0
0.181636 -0.769421 0
0.25 -0.559017 0
0.367286 -0.523721 0
0.218508 -0.672499 0
0.32102 -0.630037 0
0.367286 -0.523721 0
0.475528 -0.475529 0
0.32102 -0.630037 0
0.415627 -0.572062 0
0.218508 -0.672499 0
0.32102 -0.630037 0
0.181636 -0.769421 0
0.266849 -0.72084 0
0.32102 -0.630037 0
0.415627 -0.572062 0
0.266849 -0.72084 0
0.345491 -0.654509 0
0 -0.809017 0
0.0919499 -0.799057 0
0 -0.891007 0
0.0710198 -0.880037 0
0.0919499 -0.799057 0
0.181636 -0.769421 0
0.0710198 -0.880037 0
0.140291 -0.847398 0
0 -0.891007 0
0.0710198 -0.880037 0
0 -0.951057 0
0.0483409 -0.939348 0
0.0710198 -0.880037 0
0.140291 -0.847398 0
0.0483409 -0.939348 0
0.0954915 -0.904509 0
0.181636 -0.769421 0
0.266849 -0.72084 0
0.140291 -0.847398 0
0.206107 -0.793893 0
0.266849 -0.72084 0
0.345491 -0.654509 0
0.206107 -0.793893 0
0.266849 -0.72084 0
0.140291 -0.847398 0
0.206107 -0.793893 0
0.0954915 -0.904509 0
0.140291 -0.847398 0
0.206107 -0.793893 0
0.266849 -0.72084 0
0.140291 -0.847398 0
0.181636 -0.769421 0
0 -0.951057 0
0.0483409 -0.939348 0
0 -0.987688 0
0.0244717 -0.975528 0
0.0483409 -0.939348 0
0.0954915 -0.904509 0
0.0244717 -0.975528 0
0.0483409 -0.939347 0
0 -0.987688 0
0.0244717 -0.975528 0
0 -1 0
-1.59159e-08 -0.987688 0
0.0244717 -0.975528 0
0.0483409 -0.939347 0
-1.59159e-08 -0.987688 0
-3.08634e-08 -0.951056 0
0.0954915 -0.904509 0
0.140291 -0.847398 0
0.0483409 -0.939347 0
0.0710197 -0.880037 0
0.140291 -0.847398 0
0.181636 -0.769421 0
0.0710197 -0.880037 0
0.0919498 -0.799057 0
0.0483409 -0.939347 0
0.0710197 -0.880037 0
-3.08634e-08 -0.951056 0
-3.80572e-08 -0.891006 0
0.0710197 -0.880037 0
0.0919498 -0.799057 0
-3.80572e-08 -0.891006 0
-4.34297e-08 -0.809017 0
0 -1 0
-1.59159e-08 -0.987688 0
0 -0.987688 0
-0.0244718 -0.975528 0
-1.59159e-08 -0.987688 0
-3.08634e-08 -0.951056 0
-0.0244718 -0.975528 0
-0.0483409 -0.939347 0
0 -0.987688 0
-0.0244718 -0.975528 0
0 -0.951057 0
-0.0483409 -0.939347 0
-0.0244718 -0.975528 0
-0.0483409 -0.939347 0
-0.0483409 -0.939347 0
-0.0954915 -0.904508 0
-3.08634e-08 -0.951056 0
-3.80572e-08 -0.891006 0
-0.0483409 -0.939347 0
-0.0710198 -0.880037 0
-3.80572e-08 -0.891006 0
-4.34297e-08 -0.809017 0
-0.0710198 -0.880037 0
-0.0919499 -0.799056 0
-0.0483409 -0.939347 0
-0.0710198 -0.880037 0
-0.0954915 -0.904508 0
-0.140291 -0.847397 0
-0.0710198 -0.880037 0
-0.0919499 -0.799056 0
-0.140291 -0.847397 0
-0.181636 -0.769421 0
0 -0.951057 0
-0.0483409 -0.939347 0
0 -0.891007 0
-0.0710198 -0.880037 0
-0.0483409 -0.939347 0
-0.0954915 -0.904508 0
-0.0710198 -0.880037 0
-0.140291 -0.847397 0
0 -0.891007 0
-0.0710198 -0.880037 0
0 -0.809017 0
-0.0919499 -0.799056 0
-0.0710198 -0.880037 0
-0.140291 -0.847397 0
-0.0919499 -0.799056 0
-0.181636 -0.769421 0
-0.0954915 -0.904508 0
-0.140291 -0.847397 0
-0.140291 -0.847397 0
-0.206107 -0.793892 0
-0.140291 -0.847397 0
-0.181636 -0.769421 0
-0.206107 -0.793892 0
-0.266849 -0.720839 0
-0.140291 -0.847397 0
-0.206107 -0.793892 0
-0.181636 -0.769421 0
-0.266849 -0.720839 0
-0.206107 -0.793892 0
-0.266849 -0.720839 0
-0.266849 -0.720839 0
-0.345491 -0.654508 0
0 -0.809017 0
-0.0919499 -0.799056 0
0 -0.707107 0
-0.110616 -0.698401 0
-0.0919499 -0.799056 0
-0.181636 -0.769421 0
-0.110616 -0.698401 0
-0.218508 -0.672498 0
0 -0.707107 0
-0.110616 -0.698401 0
0 -0.587785 0
-0.126558 -0.580548 0
-0.110616 -0.698401 0
-0.218508 -0.672498 0
-0.126558 -0.580548 0
-0.25 -0.559017 0
-0.181636 -0.769421 0
-0.266849 -0.720839 0
-0.218508 -0.672498 0
-0.32102 -0.630036 0
-0.266849 -0.720839 0
-0.345491 -0.654508 0
-0.32102 -0.630036 0
-0.415627 -0.572061 0
-0.218508 -0.672498 0
-0.32102 -0.630036 0
-0.25 -0.559017 0
-0.367286 -0.52372 0
-0.32102 -0.630036 0
-0.415627 -0.572061 0
-0.367286 -0.52372 0
-0.475528 -0.475528 0
0 -0.587785 0
-0.126558 -0.580548 0
0 -0.45399 0
-0.139384 -0.448401 0
-0.126558 -0.580548 0
-0.25 -0.559017 0
-0.139384 -0.448401 0
-0.275336 -0.43177 0
0 -0.45399 0
-0.139384 -0.448401 0
0 -0.309017 0
-0.148778 -0.305212 0
-0.139384 -0.448401 0
-0.275336 -0.43177 0
-0.148778 -0.305212 0
-0.293893 -0.293892 0
-0.25 -0.559017 0
-0.367286 -0.52372 0
-0.275336 -0.43177 0
-0.404509 -0.404508 0
-0.367286 -0.52372 0
-0.475528 -0.475528 0
-0.404509 -0.404508 0
-0.523721 -0.367286 0
-0.275336 -0.43177 0
-0.404509 -0.404508 0
-0.293893 -0.293892 0
-0.431771 -0.275336 0
-0.404509 -0.404508 0
-0.523721 -0.367286 0
-0.431771 -0.275336 0
-0.559017 -0.25 0
0 -0.309017 0
-0.148778 -0.305212 0
0 -0.156434 0
-0.154509 -0.154508 0
-0.148778 -0.305212 0
-0.293893 -0.293892 0
-0.154509 -0.154508 0
-0.305212 -0.148778 0
0 -0.156434 0
-0.154509 -0.154508 0
0 -1.22465e-16 0
-0.156434 -1.20957e-16 0
-0.154509 -0.154508 0
-0.305212 -0.148778 0
-0.156434 -1.20957e-16 0
-0.309017 -1.16471e-16 0
-0.293893 -0.293892 0
-0.431771 -0.275336 0
-0.305212 -0.148778 0
-0.448401 -0.139384 0
-0.431771 -0.275336 0
-0.559017 -0.25 0
-0.448401 -0.139384 0
-0.580549 -0.126558 0
-0.305212 -0.148778 0
-0.448401 -0.139384 0
-0.309017 -1.16471e-16 0
-0.45399 -1.09117e-16 0
-0.448401 -0.139384 0
-0.580549 -0.126558 0
-0.45399 -1.09117e-16 0
-0.587785 -9.9076e-17 0
0.587785 0 0
0.707107 0 0
0.580549 -0.126558 0
0.698401 -0.110616 0
0.707107 0 0
0.809017 0 0
0.698401 -0.110616 0
0.799057 -0.0919501 0
0.580549 -0.126558 0
0.698401 -0.110616 0
0.559017 -0.25 0
0.672499 -0.218508 0
0.698401 -0.110616 0
0.799057 -0.0919501 0
0.672499 -0.218508 0
0.769421 -0.181636 0
0.809017 0 0
0.891007 0 0
0.799057 -0.0919501 0
0.880037 -0.07102 0
0.891007 0 0
0.951057 0 0
0.880037 -0.07102 0
0.939347 -0.0483411 0
0.799057 -0.0919501 0
0.880037 -0.07102 0
0.769421 -0.181636 0
0.847398 -0.140291 0
0.880037 -0.07102 0
0.939347 -0.0483411 0
0.847398 -0.140291 0
0.904509 -0.0954918 0
0.559017 -0.25 0
0.672499 -0.218508 0
0.523721 -0.367286 0
0.630037 -0.32102 0
0.672499 -0.218508 0
0.769421 -0.181636 0
0.630037 -0.32102 0
0.720839 -0.266849 0
0.523721 -0.367286 0
0.630037 -0.32102 0
0.475528 -0.475529 0
0.572061 -0.415627 0
0.630037 -0.32102 0
0.720839 -0.266849 0
0.572061 -0.415627 0
0.654508 -0.345492 0
0.769421 -0.181636 0
0.847398 -0.140291 0
0.720839 -0.266849 0
0.793893 -0.206108 0
0.847398 -0.140291 0
0.904509 -0.0954918 0
0.793893 -0.206108 0
0.847398 -0.140291 0
0.720839 -0.266849 0
0.793893 -0.206108 0
0.654508 -0.345492 0
0.720839 -0.266849 0
0.793893 -0.206108 0
0.847398 -0.140291 0
0.720839 -0.266849 0
0.769421 -0.181636 0
0.475528 -0.475529 0
0.572061 -0.415627 0
0.415627 -0.572062 0
0.5 -0.5 0
0.572061 -0.415627 0
0.654508 -0.345492 0
0.5 -0.5 0
0.572061 -0.415627 0
0.415627 -0.572062 0
0.5 -0.5 0
0.345491 -0.654509 0
0.415627 -0.572062 0
0.5 -0.5 0
0.572061 -0.415627 0
0.415627 -0.572062 0
0.475528 -0.475528 0
0.654508 -0.345492 0
0.720839 -0.266849 0
0.572061 -0.415627 0
0.630037 -0.32102 0
0.720839 -0.266849 0
0.769421 -0.181636 0
0.630037 -0.32102 0
0.672499 -0.218508 0
0.572061 -0.415627 0
0.630037 -0.32102 0
0.475528 -0.475528 0
0.52372 -0.367286 0
0.630037 -0.32102 0
0.672499 -0.218508 0
0.52372 -0.367286 0
0.559017 -0.25 0
0.345491 -0.654509 0
0.415627 -0.572062 0
0.266849 -0.72084 0
0.32102 -0.630037 0
0.415627 -0.572062 0
0.475528 -0.475528 0
0.32102 -0.630037 0
0.367286 -0.523721 0
0.266849 -0.72084 0
0.32102 -0.630037 0
0.181636 -0.769421 0
0.218508 -0.672499 0
0.32102 -0.630037 0
0.367286 -0.523721 0
0.218508 -0.672499 0
0.25 -0.559017 0
0.475528 -0.475528 0
0.52372 -0.367286 0
0.367286 -0.523721 0
0.404508 -0.404509 0
0.52372 -0.367286 0
0.559017 -0.25 0
0.404508 -0.404509 0
0.431771 -0.275336 0
0.367286 -0.523721 0
0.404508 -0.404509 0
0.25 -0.559017 0
0.275336 -0.431771 0
0.404508 -0.404509 0
0.431771 -0.275336 0
0.275336 -0.431771 0
0.293893 -0.293893 0
0.181636 -0.769421 0
0.218508 -0.672499 0
0.0919498 -0.799057 0
0.110616 -0.698401 0
0.218508 -0.672499 0
0.25 -0.559017 0
0.110616 -0.698401 0
0.126558 -0.580549 0
0.0919498 -0.799057 0
0.110616 -0.698401 0
-4.34297e-08 -0.809017 0
-2.85071e-08 -0.707107 0
0.110616 -0.698401 0
0.126558 -0.580549 0
-2.85071e-08 -0.707107 0
-6.91805e-09 -0.587785 0
0.25 -0.559017 0
0.275336 -0.431771 0
0.126558 -0.580549 0
0.139384 -0.448401 0
0.275336 -0.431771 0
0.293893 -0.293893 0
0.139384 -0.448401 0
0.148778 -0.305213 0
0.126558 -0.580549 0
0.139384 -0.448401 0
-6.91805e-09 -0.587785 0
4.15133e-08 -0.45399 0
0.139384 -0.448401 0
0.148778 -0.305213 0
4.15133e-08 -0.45399 0
9.91868e-08 -0.309017 0
-4.34297e-08 -0.809017 0
-2.85071e-08 -0.707107 0
-0.0919499 -0.799056 0
-0.110616 -0.698401 0
-2.85071e-08 -0.707107 0
-6.91805e-09 -0.587785 0
-0.110616 -0.698401 0
-0.126558 -0.580548 0
-0.0919499 -0.799056 0
-0.110616 -0.698401 0
-0.181636 -0.769421 0
-0.218508 -0.672498 0
-0.110616 -0.698401 0
-0.126558 -0.580548 0
-0.218508 -0.672498 0
-0.25 -0.559017 0
-6.91805e-09 -0.587785 0
4.15133e-08 -0.45399 0
-0.126558 -0.580548 0
-0.139384 -0.448401 0
4.15133e-08 -0.45399 0
9.91868e-08 -0.309017 0
-0.139384 -0.448401 0
-0.148778 -0.305212 0
-0.126558 -0.580548 0
-0.139384 -0.448401 0
-0.25 -0.559017 0
-0.275336 -0.43177 0
-0.139384 -0.448401 0
-0.148778 -0.305212 0
-0.275336 -0.43177 0
-0.293892 -0.293892 0
-0.181636 -0.769421 0
-0.218508 -0.672498 0
-0.266849 -0.720839 0
-0.32102 -0.630036 0
-0.218508 -0.672498 0
-0.25 -0.559017 0
-0.32102 -0.630036 0
-0.367286 -0.52372 0
-0.266849 -0.720839 0
-0.32102 -0.630036 0
-0.345491 -0.654508 0
-0.415627 -0.572061 0
-0.32102 -0.630036 0
-0.367286 -0.52372 0
-0.415627 -0.572061 0
-0.475528 -0.475528 0
-0.25 -0.559017 0
-0.275336 -0.43177 0
-0.367286 -0.52372 0
-0.404508 -0.404508 0
-0.275336 -0.43177 0
-0.293892 -0.293892 0
-0.404508 -0.404508 0
-0.43177 -0.275336 0
-0.367286 -0.52372 0
-0.404508 -0.404508 0
-0.475528 -0.475528 0
-0.52372 -0.367286 0
-0.404508 -0.404508 0
-0.43177 -0.275336 0
-0.52372 -0.367286 0
-0.559017 -0.25 0
-0.345491 -0.654508 0
-0.415627 -0.572061 0
-0.415627 -0.572061 0
-0.5 -0.5 0
-0.415627 -0.572061 0
-0.475528 -0.475528 0
-0.5 -0.5 0
-0.572061 -0.415627 0
-0.415627 -0.572061 0
-0.5 -0.5 0
-0.475528 -0.475528 0
-0.572061 -0.415627 0
-0.5 -0.5 0
-0.572061 -0.415627 0
-0.572061 -0.415627 0
-0.654508 -0.345491 0
-0.475528 -0.475528 0
-0.52372 -0.367286 0
-0.572061 -0.415627 0
-0.630037 -0.321019 0
-0.52372 -0.367286 0
-0.559017 -0.25 0
-0.630037 -0.321019 0
-0.672498 -0.218508 0
-0.572061 -0.415627 0
-0.630037 -0.321019 0
-0.654508 -0.345491 0
-0.720839 -0.266849 0
-0.630037 -0.321019 0
-0.672498 -0.218508 0
-0.720839 -0.266849 0
-0.769421 -0.181635 0
-0.475528 -0.475528 0
-0.572061 -0.415627 0
-0.523721 -0.367286 0
-0.630037 -0.32102 0
-0.572061 -0.415627 0
-0.654508 -0.345491 0
-0.630037 -0.32102 0
-0.720839 -0.266849 0
-0.523721 -0.367286 0
-0.630037 -0.32102 0
-0.559017 -0.25 0
-0.672499 -0.218508 0
-0.630037 -0.32102 0
-0.720839 -0.266849 0
-0.672499 -0.218508 0
-0.769421 -0.181635 0
-0.654508 -0.345491 0
-0.720839 -0.266849 0
-0.720839 -0.266849 0
-0.793893 -0.206107 0
-0.720839 -0.266849 0
-0.769421 -0.181635 0
-0.793893 -0.206107 0
-0.847397 -0.140291 0
-0.720839 -0.266849 0
-0.793893 -0.206107 0
-0.769421 -0.181635 0
-0.847398 -0.140291 0
-0.793893 -0.206107 0
-0.847397 -0.140291 0
-0.847398 -0.140291 0
-0.904508 -0.0954914 0
-0.559017 -0.25 0
-0.672499 -0.218508 0
-0.580549 -0.126558 0
-0.698401 -0.110616 0
-0.672499 -0.218508 0
-0.769421 -0.181635 0
-0.698401 -0.110616 0
-0.799057 -0.0919497 0
-0.580549 -0.126558 0
-0.698401 -0.110616 0
-0.587785 -9.9076e-17 0
-0.707107 -8.65956e-17 0
-0.698401 -0.110616 0
-0.799057 -0.0919497 0
-0.707107 -8.65956e-17 0
-0.809017 -7.19829e-17 0
-0.769421 -0.181635 0
-0.847398 -0.140291 0
-0.799057 -0.0919497 0
-0.880037 -0.0710197 0
-0.847398 -0.140291 0
-0.904508 -0.0954914 0
-0.880037 -0.0710197 0
-0.939347 -0.0483408 0
-0.799057 -0.0919497 0
-0.880037 -0.0710197 0
-0.809017 -7.19829e-17 0
-0.891007 -5.55978e-17 0
-0.880037 -0.0710197 0
-0.939347 -0.0483408 0
-0.891007 -5.55978e-17 0
-0.951057 -3.78437e-17 0
0.951057 0 0
0.987688 0 0
0.939347 -0.0483411 0
0.975528 -0.0244719 0
0.987688 0 0
1 0 0
0.975528 -0.0244719 0
0.987688 -1.35282e-07 0
0.939347 -0.0483411 0
0.975528 -0.0244719 0
0.904509 -0.0954918 0
0.939347 -0.0483411 0
0.975528 -0.0244719 0
0.987688 -1.35282e-07 0
0.939347 -0.0483411 0
0.951057 -2.05542e-07 0
1 0 0
0.987688 0 0
0.987688 -1.35282e-07 0
0.975528 0.0244716 0
0.987688 0 0
0.951057 0 0
0.975528 0.0244716 0
0.939347 0.0483408 0
0.987688 -1.35282e-07 0
0.975528 0.0244716 0
0.951057 -2.05542e-07 0
0.939347 0.0483407 0
0.975528 0.0244716 0
0.939347 0.0483408 0
0.939347 0.0483407 0
0.904509 0.0954914 0
0.904509 -0.0954918 0
0.939347 -0.0483411 0
0.847398 -0.140291 0
0.880037 -0.07102 0
0.939347 -0.0483411 0
0.951057 -2.05542e-07 0
0.880037 -0.07102 0
0.891007 -2.51921e-07 0
0.847398 -0.140291 0
0.880037 -0.07102 0
0.769421 -0.181636 0
0.799057 -0.0919502 0
0.880037 -0.07102 0
0.891007 -2.51921e-07 0
0.799057 -0.0919502 0
0.809017 -2.81925e-07 0
0.951057 -2.05542e-07 0
0.939347 0.0483407 0
0.891007 -2.51921e-07 0
0.880037 0.0710195 0
0.939347 0.0483407 0
0.904509 0.0954914 0
0.880037 0.0710195 0
0.847398 0.140291 0
0.891007 -2.51921e-07 0
0.880037 0.0710195 0
0.809017 -2.81925e-07 0
0.799057 0.0919496 0
0.880037 0.0710195 0
0.847398 0.140291 0
0.799057 0.0919496 0
0.769421 0.181635 0
0.769421 -0.181636 0
0.799057 -0.0919502 0
0.672499 -0.218508 0
0.698401 -0.110616 0
0.799057 -0.0919502 0
0.809017 -2.81925e-07 0
0.698401 -0.110616 0
0.707107 -2.89906e-07 0
0.672499 -0.218508 0
0.698401 -0.110616 0
0.559017 -0.25 0
0.580549 -0.126558 0
0.698401 -0.110616 0
0.707107 -2.89906e-07 0
0.580549 -0.126558 0
0.587785 -2.79905e-07 0
0.809017 -2.81925e-07 0
0.799057 0.0919496 0
0.707107 -2.89906e-07 0
0.698401 0.110616 0
0.799057 0.0919496 0
0.769421 0.181635 0
0.698401 0.110616 0
0.672499 0.218508 0
0.707107 -2.89906e-07 0
0.698401 0.110616 0
0.587785 -2.79905e-07 0
0.580549 0.126558 0
0.698401 0.110616 0
0.672499 0.218508 0
0.580549 0.126558 0
0.559017 0.25 0
0.559017 -0.25 0
0.580549 -0.126558 0
0.431771 -0.275336 0
0.448401 -0.139384 0
0.580549 -0.126558 0
0.587785 -2.79905e-07 0
0.448401 -0.139384 0
0.453991 -2.42444e-07 0
0.431771 -0.275336 0
0.448401 -0.139384 0
0.293893 -0.293893 0
0.305213 -0.148778 0
0.448401 -0.139384 0
0.453991 -2.42444e-07 0
0.305213 -0.148778 0
0.309017 -1.86653e-07 0
0.587785 -2.79905e-07 0
0.580549 0.126558 0
0.453991 -2.42444e-07 0
0.448401 0.139384 0
0.580549 0.126558 0
0.559017 0.25 0
0.448401 0.139384 0
0.431771 0.275336 0
0.453991 -2.42444e-07 0
0.448401 0.139384 0
0.309017 -1.86653e-07 0
0.305213 0.148778 0
0.448401 0.139384 0
0.431771 0.275336 0
0.305213 0.148778 0
0.293893 0.293892 0
0.293893 -0.293893 0
0.305213 -0.148778 0
0.148778 -0.305213 0
0.154509 -0.154509 0
0.305213 -0.148778 0
0.309017 -1.86653e-07 0
0.154509 -0.154509 0
0.156435 -1.11881e-07 0
0.148778 -0.305213 0
0.154509 -0.154509 0
9.91868e-08 -0.309017 0
1.77706e-07 -0.156434 0
0.154509 -0.154509 0
0.156435 -1.11881e-07 0
1.77706e-07 -0.156434 0
2.55385e-07 -3.2283e-08 0
0.309017 -1.86653e-07 0
0.305213 0.148778 0
0.156435 -1.11881e-07 0
0.154509 0.154508 0
0.305213 0.148778 0
0.293893 0.293892 0
0.154509 0.154508 0
0.148778 0.305212 0
0.156435 -1.11881e-07 0
0.154509 0.154508 0
2.55385e-07 -3.2283e-08 0
3.31262e-07 0.156434 0
0.154509 0.154508 0
0.148778 0.305212 0
3.31262e-07 0.156434 0
3.87262e-07 0.309017 0
9.91868e-08 -0.309017 0
1.77706e-07 -0.156434 0
-0.148778 -0.305212 0
-0.154508 -0.154508 0
1.77706e-07 -0.156434 0
2.55385e-07 -3.2283e-08 0
-0.154508 -0.154508 0
-0.156434 4.16698e-08 0
-0.148778 -0.305212 0
-0.154508 -0.154508 0
-0.293892 -0.293892 0
-0.305212 -0.148778 0
-0.154508 -0.154508 0
-0.156434 4.16698e-08 0
-0.305212 -0.148778 0
-0.309017 1.01421e-07 0
2.55385e-07 -3.2283e-08 0
3.31262e-07 0.156434 0
-0.156434 4.16698e-08 0
-0.154508 0.154509 0
3.31262e-07 0.156434 0
3.87262e-07 0.309017 0
-0.154508 0.154509 0
-0.148778 0.305212 0
-0.156434 4.16698e-08 0
-0.154508 0.154509 0
-0.309017 1.01421e-07 0
-0.305212 0.148778 0
-0.154508 0.154509 0
-0.148778 0.305212 0
-0.305212 0.148778 0
-0.293892 0.293893 0
-0.293892 -0.293892 0
-0.305212 -0.148778 0
-0.43177 -0.275336 0
-0.448401 -0.139384 0
-0.305212 -0.148778 0
-0.309017 1.01421e-07 0
-0.448401 -0.139384 0
-0.45399 1.34792e-07 0
-0.43177 -0.275336 0
-0.448401 -0.139384 0
-0.559017 -0.25 0
-0.580548 -0.126558 0
-0.448401 -0.139384 0
-0.45399 1.34792e-07 0
-0.580548 -0.126558 0
-0.587785 1.48766e-07 0
-0.309017 1.01421e-07 0
-0.305212 0.148778 0
-0.45399 1.34792e-07 0
-0.448401 0.139384 0
-0.305212 0.148778 0
-0.293892 0.293893 0
-0.448401 0.139384 0
-0.43177 0.275336 0
-0.45399 1.34792e-07 0
-0.448401 0.139384 0
-0.587785 1.48766e-07 0
-0.580548 0.126558 0
-0.448401 0.139384 0
-0.43177 0.275336 0
-0.580548 0.126558 0
-0.559017 0.25 0
-0.559017 -0.25 0
-0.580548 -0.126558 0
-0.672498 -0.218508 0
-0.698401 -0.110616 0
-0.580548 -0.126558 0
-0.587785 1.48766e-07 0
-0.698401 -0.110616 0
-0.707106 1.3346e-07 0
-0.672498 -0.218508 0
-0.698401 -0.110616 0
-0.769421 -0.181635 0
-0.799056 -0.0919497 0
-0.698401 -0.110616 0
-0.707106 1.3346e-07 0
-0.799056 -0.0919497 0
-0.809017 1.07397e-07 0
-0.587785 1.48766e-07 0
-0.580548 0.126558 0
-0.707106 1.3346e-07 0
-0.698401 0.110616 0
-0.580548 0.126558 0
-0.559017 0.25 0
-0.698401 0.110616 0
-0.672498 0.218508 0
-0.707106 1.3346e-07 0
-0.698401 0.110616 0
-0.809017 1.07397e-07 0
-0.799056 0.0919499 0
-0.698401 0.110616 0
-0.672498 0.218508 0
-0.799056 0.0919499 0
-0.769421 0.181636 0
-0.769421 -0.181635 0
-0.799056 -0.0919497 0
-0.847397 -0.140291 0
-0.880037 -0.0710196 0
-0.799056 -0.0919497 0
-0.809017 1.07397e-07 0
-0.880037 -0.0710196 0
-0.891006 6.11176e-08 0
-0.847397 -0.140291 0
-0.880037 -0.0710196 0
-0.904508 -0.0954914 0
-0.939347 -0.0483408 0
-0.880037 -0.0710196 0
-0.891006 6.11176e-08 0
-0.939347 -0.0483408 0
-0.951056 1.76562e-08 0
-0.809017 1.07397e-07 0
-0.799056 0.0919499 0
-0.891006 6.11176e-08 0
-0.880037 0.0710198 0
-0.799056 0.0919499 0
-0.769421 0.181636 0
-0.880037 0.0710198 0
-0.847397 0.140291 0
-0.891006 6.11176e-08 0
-0.880037 0.0710198 0
-0.951056 1.76562e-08 0
-0.939347 0.0483409 0
-0.880037 0.0710198 0
-0.847397 0.140291 0
-0.939347 0.0483409 0
-0.904508 0.0954914 0
-0.904508 -0.0954914 0
-0.939347 -0.0483408 0
-0.939347 -0.0483408 0
-0.975528 -0.0244717 0
-0.939347 -0.0483408 0
-0.951056 1.76562e-08 0
-0.975528 -0.0244717 0
-0.987688 -2.00038e-08 0
-0.939347 -0.0483408 0
-0.975528 -0.0244717 0
-0.951057 -3.78437e-17 0
-0.987688 -1.91577e-17 0
-0.975528 -0.0244717 0
-0.987688 -2.00038e-08 0
-0.987688 -1.91577e-17 0
-1 -3.46914e-32 0
-0.951056 1.76562e-08 0
-0.939347 0.0483409 0
-0.987688 -2.00038e-08 0