# vtk DataFile Version 3.0
#This file was generated by the deal.II library on 2026/5/29 at 11:01:32
ASCII
DATASET UNSTRUCTURED_GRID

POINTS 25600 double
0 0 0
0.0125 0 0
0 0.0125 0
0.0125 0.0125 0
0.0125 0 0
0.025 0 0
0.0125 0.0125 0
0.025 0.0125 0
0 0.0125 0
0.0125 0.0125 0
0 0.025 0
0.0125 0.025 0
0.0125 0.0125 0
0.025 0.0125 0
0.0125 0.025 0
0.025 0.025 0
0.025 0 0
0.0375 0 0
0.025 0.0125 0
0.0375 0.0125 0
0.0375 0 0
0.05 0 0
0.0375 0.0125 0
0.05 0.0125 0
0.025 0.0125 0
0.0375 0.0125 0
0.025 0.025 0
0.0375 0.025 0
0.0375 0.0125 0
0.05 0.0125 0
0.0375 0.025 0
0.05 0.025 0
0 0.025 0
0.0125 0.025 0
0 0.0375 0
0.0125 0.0375 0
0.0125 0.025 0
0.025 0.025 0
0.0125 0.0375 0
0.025 0.0375 0
0 0.0375 0
0.0125 0.0375 0
0 0.05 0
0.0125 0.05 0
0.0125 0.0375 0
0.025 0.0375 0
0.0125 0.05 0
0.025 0.05 0
0.025 0.025 0
0.0375 0.025 0
0.025 0.0375 0
0.0375 0.0375 0
0.0375 0.025 0
0.05 0.025 0
0.0375 0.0375 0
0.05 0.0375 0
0.025 0.0375 0
0.0375 0.0375 0
0.025 0.05 0
0.0375 0.05 0
0.0375 0.0375 0
0.05 0.0375 0
0.0375 0.05 0
0.05 0.05 0
0.05 0 0
0.0625 0 0
0.05 0.0125 0
0.0625 0.0125 0
0.0625 0 0
0.075 0 0
0.0625 0.0125 0
0.075 0.0125 0
0.05 0.0125 0
0.0625 0.0125 0
0.05 0.025 0
0.0625 0.025 0
0.0625 0.0125 0
0.075 0.0125 0
0.0625 0.025 0
0.075 0.025 0
0.075 0 0
0.0875 0 0
0.075 0.0125 0
0.0875 0.0125 0
0.0875 0 0
0.1 0 0
0.0875 0.0125 0
0.1 0.0125 0
0.075 0.0125 0
0.0875 0.0125 0
0.075 0.025 0
0.0875 0.025 0
0.0875 0.0125 0
0.1 0.0125 0
0.0875 0.025 0
0.1 0.025 0
0.05 0.025 0
0.0625 0.025 0
0.05 0.0375 0
0.0625 0.0375 0
0.0625 0.025 0
0.075 0.025 0
0.0625 0.0375 0
0.075 0.0375 0
0.05 0.0375 0
0.0625 0.0375 0
0.05 0.05 0
0.0625 0.05 0
0.0625 0.0375 0
0.075 0.0375 0
0.0625 0.05 0
0.075 0.05 0
0.075 0.025 0
0.0875 0.025 0
0.075 0.0375 0
0.0875 0.0375 0
0.0875 0.025 0
0.1 0.025 0
0.0875 0.0375 0
0.1 0.0375 0
0.075 0.0375 0
0.0875 0.0375 0
0.075 0.05 0
0.0875 0.05 0
0.0875 0.0375 0
0.1 0.0375 0
0.0875 0.05 0
0.1 0.05 0
0 0.05 0
0.0125 0.05 0
0 0.0625 0
0.0125 0.0625 0
0.0125 0.05 0
0.025 0.05 0
0.0125 0.0625 0
0.025 0.0625 0
0 0.0625 0
0.0125 0.0625 0
0 0.075 0
0.0125 0.075 0
0.0125 0.0625 0
0.025 0.0625 0
0.0125 0.075 0
0.025 0.075 0
0.025 0.05 0
0.0375 0.05 0
0.025 0.0625 0
0.0375 0.0625 0
0.0375 0.05 0
0.05 0.05 0
0.0375 0.0625 0
0.05 0.0625 0
0.025 0.0625 0
0.0375 0.0625 0
0.025 0.075 0
0.0375 0.075 0
0.0375 0.0625 0
0.05 0.0625 0
0.0375 0.075 0
0.05 0.075 0
0 0.075 0
0.0125 0.075 0
0 0.0875 0
0.0125 0.0875 0
0.0125 0.075 0
0.025 0.075 0
0.0125 0.0875 0
0.025 0.0875 0
0 0.0875 0
0.0125 0.0875 0
0 0.1 0
0.0125 0.1 0
0.0125 0.0875 0
0.025 0.0875 0
0.0125 0.1 0
0.025 0.1 0
0.025 0.075 0
0.0375 0.075 0
0.025 0.0875 0
0.0375 0.0875 0
0.0375 0.075 0
0.05 0.075 0
0.0375 0.0875 0
0.05 0.0875 0
0.025 0.0875 0
0.0375 0.0875 0
0.025 0.1 0
0.0375 0.1 0
0.0375 0.0875 0
0.05 0.0875 0
0.0375 0.1 0
0.05 0.1 0
0.05 0.05 0
0.0625 0.05 0
0.05 0.0625 0
0.0625 0.0625 0
0.0625 0.05 0
0.075 0.05 0
0.0625 0.0625 0
0.075 0.0625 0
0.05 0.0625 0
0.0625 0.0625 0
0.05 0.075 0
0.0625 0.075 0
0.0625 0.0625 0
0.075 0.0625 0
0.0625 0.075 0
0.075 0.075 0
0.075 0.05 0
0.0875 0.05 0
0.075 0.0625 0
0.0875 0.0625 0
0.0875 0.05 0
0.1 0.05 0
0.0875 0.0625 0
0.1 0.0625 0
0.075 0.0625 0
0.0875 0.0625 0
0.075 0.075 0
0.0875 0.075 0
0.0875 0.0625 0
0.1 0.0625 0
0.0875 0.075 0
0.1 0.075 0
0.05 0.075 0
0.0625 0.075 0
0.05 0.0875 0
0.0625 0.0875 0
0.0625 0.075 0
0.075 0.075 0
0.0625 0.0875 0
0.075 0.0875 0
0.05 0.0875 0
0.0625 0.0875 0
0.05 0.1 0
0.0625 0.1 0
0.0625 0.0875 0
0.075 0.0875 0
0.0625 0.1 0
0.075 0.1 0
0.075 0.075 0
0.0875 0.075 0
0.075 0.0875 0
0.0875 0.0875 0
0.0875 0.075 0
0.1 0.075 0
0.0875 0.0875 0
0.1 0.0875 0
0.075 0.0875 0
0.0875 0.0875 0
0.075 0.1 0
0.0875 0.1 0
0.0875 0.0875 0
0.1 0.0875 0
0.0875 0.1 0
0.1 0.1 0
0.1 0 0
0.1125 0 0
0.1 0.0125 0
0.1125 0.0125 0
0.1125 0 0
0.125 0 0
0.1125 0.0125 0
0.125 0.0125 0
0.1 0.0125 0
0.1125 0.0125 0
0.1 0.025 0
0.1125 0.025 0
0.1125 0.0125 0
0.125 0.0125 0
0.1125 0.025 0
0.125 0.025 0
0.125 0 0
0.1375 0 0
0.125 0.0125 0
0.1375 0.0125 0
0.1375 0 0
0.15 0 0
0.1375 0.0125 0
0.15 0.0125 0
0.125 0.0125 0
0.1375 0.0125 0
0.125 0.025 0
0.1375 0.025 0
0.1375 0.0125 0
0.15 0.0125 0
0.1375 0.025 0
0.15 0.025 0
0.1 0.025 0
0.1125 0.025 0
0.1 0.0375 0
0.1125 0.0375 0
0.1125 0.025 0
0.125 0.025 0
0.1125 0.0375 0
0.125 0.0375 0
0.1 0.0375 0
0.1125 0.0375 0
0.1 0.05 0
0.1125 0.05 0
0.1125 0.0375 0
0.125 0.0375 0
0.1125 0.05 0
0.125 0.05 0
0.125 0.025 0
0.1375 0.025 0
0.125 0.0375 0
0.1375 0.0375 0
0.1375 0.025 0
0.15 0.025 0
0.1375 0.0375 0
0.15 0.0375 0
0.125 0.0375 0
0.1375 0.0375 0
0.125 0.05 0
0.1375 0.05 0
0.1375 0.0375 0
0.15 0.0375 0
0.1375 0.05 0
0.15 0.05 0
0.15 0 0
0.1625 0 0
0.15 0.0125 0
0.1625 0.0125 0
0.1625 0 0
0.175 0 0
0.1625 0.0125 0
0.175 0.0125 0
0.15 0.0125 0
0.1625 0.0125 0
0.15 0.025 0
0.1625 0.025 0
0.1625 0.0125 0
0.175 0.0125 0
0.1625 0.025 0
0.175 0.025 0
0.175 0 0
0.1875 0 0
0.175 0.0125 0
0.1875 0.0125 0
0.1875 0 0
0.2 0 0
0.1875 0.0125 0
0.2 0.0125 0
0.175 0.0125 0
0.1875 0.0125 0
0.175 0.025 0
0.1875 0.025 0
0.1875 0.0125 0
0.2 0.0125 0
0.1875 0.025 0
0.2 0.025 0
0.15 0.025 0
0.1625 0.025 0
0.15 0.0375 0
0.1625 0.0375 0
0.1625 0.025 0
0.175 0.025 0
0.1625 0.0375 0
0.175 0.0375 0
0.15 0.0375 0
0.1625 0.0375 0
0.15 0.05 0
0.1625 0.05 0
0.1625 0.0375 0
0.175 0.0375 0
0.1625 0.05 0
0.175 0.05 0
0.175 0.025 0
0.1875 0.025 0
0.175 0.0375 0
0.1875 0.0375 0
0.1875 0.025 0
0.2 0.025 0
0.1875 0.0375 0
0.2 0.0375 0
0.175 0.0375 0
0.1875 0.0375 0
0.175 0.05 0
0.1875 0.05 0
0.1875 0.0375 0
0.2 0.0375 0
0.1875 0.05 0
0.2 0.05 0
0.1 0.05 0
0.1125 0.05 0
0.1 0.0625 0
0.1125 0.0625 0
0.1125 0.05 0
0.125 0.05 0
0.1125 0.0625 0
0.125 0.0625 0
0.1 0.0625 0
0.1125 0.0625 0
0.1 0.075 0
0.1125 0.075 0
0.1125 0.0625 0
0.125 0.0625 0
0.1125 0.075 0
0.125 0.075 0
0.125 0.05 0
0.1375 0.05 0
0.125 0.0625 0
0.1375 0.0625 0
0.1375 0.05 0
0.15 0.05 0
0.1375 0.0625 0
0.15 0.0625 0
0.125 0.0625 0
0.1375 0.0625 0
0.125 0.075 0
0.1375 0.075 0
0.1375 0.0625 0
0.15 0.0625 0
0.1375 0.075 0
0.15 0.075 0
0.1 0.075 0
0.1125 0.075 0
0.1 0.0875 0
0.1125 0.0875 0
0.1125 0.075 0
0.125 0.075 0
0.1125 0.0875 0
0.125 0.0875 0
0.1 0.0875 0
0.1125 0.0875 0
0.1 0.1 0
0.1125 0.1 0
0.1125 0.0875 0
0.125 0.0875 0
0.1125 0.1 0
0.125 0.1 0
0.125 0.075 0
0.1375 0.075 0
0.125 0.0875 0
0.1375 0.0875 0
0.1375 0.075 0
0.15 0.075 0
0.1375 0.0875 0
0.15 0.0875 0
0.125 0.0875 0
0.1375 0.0875 0
0.125 0.1 0
0.1375 0.1 0
0.1375 0.0875 0
0.15 0.0875 0
0.1375 0.1 0
0.15 0.1 0
0.15 0.05 0
0.1625 0.05 0
0.15 0.0625 0
0.1625 0.0625 0
0.1625 0.05 0
0.175 0.05 0
0.1625 0.0625 0
0.175 0.0625 0
0.15 0.0625 0
0.1625 0.0625 0
0.15 0.075 0
0.1625 0.075 0
0.1625 0.0625 0
0.175 0.0625 0
0.1625 0.075 0
0.175 0.075 0
0.175 0.05 0
0.1875 0.05 0
0.175 0.0625 0
0.1875 0.0625 0
0.1875 0.05 0
0.2 0.05 0
0.1875 0.0625 0
0.2 0.0625 0
0.175 0.0625 0
0.1875 0.0625 0
0.175 0.075 0
0.1875 0.075 0
0.1875 0.0625 0
0.2 0.0625 0
0.1875 0.075 0
0.2 0.075 0
0.15 0.075 0
0.1625 0.075 0
0.15 0.0875 0
0.1625 0.0875 0
0.1625 0.075 0
0.175 0.075 0
0.1625 0.0875 0
0.175 0.0875 0
0.15 0.0875 0
0.1625 0.0875 0
0.15 0.1 0
0.1625 0.1 0
0.1625 0.0875 0
0.175 0.0875 0
0.1625 0.1 0
0.175 0.1 0
0.175 0.075 0
0.1875 0.075 0
0.175 0.0875 0
0.1875 0.0875 0
0.1875 0.075 0
0.2 0.075 0
0.1875 0.0875 0
0.2 0.0875 0
0.175 0.0875 0
0.1875 0.0875 0
0.175 0.1 0
0.1875 0.1 0
0.1875 0.0875 0
0.2 0.0875 0
0.1875 0.1 0
0.2 0.1 0
0 0.1 0
0.0125 0.1 0
0 0.1125 0
0.0125 0.1125 0
0.0125 0.1 0
0.025 0.1 0
0.0125 0.1125 0
0.025 0.1125 0
0 0.1125 0
0.0125 0.1125 0
0 0.125 0
0.0125 0.125 0
0.0125 0.1125 0
0.025 0.1125 0
0.0125 0.125 0
0.025 0.125 0
0.025 0.1 0
0.0375 0.1 0
0.025 0.1125 0
0.0375 0.1125 0
0.0375 0.1 0
0.05 0.1 0
0.0375 0.1125 0
0.05 0.1125 0
0.025 0.1125 0
0.0375 0.1125 0
0.025 0.125 0
0.0375 0.125 0
0.0375 0.1125 0
0.05 0.1125 0
0.0375 0.125 0
0.05 0.125 0
0 0.125 0
0.0125 0.125 0
0 0.1375 0
0.0125 0.1375 0
0.0125 0.125 0
0.025 0.125 0
0.0125 0.1375 0
0.025 0.1375 0
0 0.1375 0
0.0125 0.1375 0
0 0.15 0
0.0125 0.15 0
0.0125 0.1375 0
0.025 0.1375 0
0.0125 0.15 0
0.025 0.15 0
0.025 0.125 0
0.0375 0.125 0
0.025 0.1375 0
0.0375 0.1375 0
0.0375 0.125 0
0.05 0.125 0
0.0375 0.1375 0
0.05 0.1375 0
0.025 0.1375 0
0.0375 0.1375 0
0.025 0.15 0
0.0375 0.15 0
0.0375 0.1375 0
0.05 0.1375 0
0.0375 0.15 0
0.05 0.15 0
0.05 0.1 0
0.0625 0.1 0
0.05 0.1125 0
0.0625 0.1125 0
0.0625 0.1 0
0.075 0.1 0
0.0625 0.1125 0
0.075 0.1125 0
0.05 0.1125 0
0.0625 0.1125 0
0.05 0.125 0
0.0625 0.125 0
0.0625 0.1125 0
0.075 0.1125 0
0.0625 0.125 0
0.075 0.125 0
0.075 0.1 0
0.0875 0.1 0
0.075 0.1125 0
0.0875 0.1125 0
0.0875 0.1 0
0.1 0.1 0
0.0875 0.1125 0
0.1 0.1125 0
0.075 0.1125 0
0.0875 0.1125 0
0.075 0.125 0
0.0875 0.125 0
0.0875 0.1125 0
0.1 0.1125 0
0.0875 0.125 0
0.1 0.125 0
0.05 0.125 0
0.0625 0.125 0
0.05 0.1375 0
0.0625 0.1375 0
0.0625 0.125 0
0.075 0.125 0
0.0625 0.1375 0
0.075 0.1375 0
0.05 0.1375 0
0.0625 0.1375 0
0.05 0.15 0
0.0625 0.15 0
0.0625 0.1375 0
0.075 0.1375 0
0.0625 0.15 0
0.075 0.15 0
0.075 0.125 0
0.0875 0.125 0
0.075 0.1375 0
0.0875 0.1375 0
0.0875 0.125 0
0.1 0.125 0
0.0875 0.1375 0
0.1 0.1375 0
0.075 0.1375 0
0.0875 0.1375 0
0.075 0.15 0
0.0875 0.15 0
0.0875 0.1375 0
0.1 0.1375 0
0.0875 0.15 0
0.1 0.15 0
0 0.15 0
0.0125 0.15 0
0 0.1625 0
0.0125 0.1625 0
0.0125 0.15 0
0.025 0.15 0
0.0125 0.1625 0
0.025 0.1625 0
0 0.1625 0
0.0125 0.1625 0
0 0.175 0
0.0125 0.175 0
0.0125 0.1625 0
0.025 0.1625 0
0.0125 0.175 0
0.025 0.175 0
0.025 0.15 0
0.0375 0.15 0
0.025 0.1625 0
0.0375 0.1625 0
0.0375 0.15 0
0.05 0.15 0
0.0375 0.1625 0
0.05 0.1625 0
0.025 0.1625 0
0.0375 0.1625 0
0.025 0.175 0
0.0375 0.175 0
0.0375 0.1625 0
0.05 0.1625 0
0.0375 0.175 0
0.05 0.175 0
0 0.175 0
0.0125 0.175 0
0 0.1875 0
0.0125 0.1875 0
0.0125 0.175 0
0.025 0.175 0
0.0125 0.1875 0
0.025 0.1875 0
0 0.1875 0
0.0125 0.1875 0
0 0.2 0
0.0125 0.2 0
0.0125 0.1875 0
0.025 0.1875 0
0.0125 0.2 0
0.025 0.2 0
0.025 0.175 0
0.0375 0.175 0
0.025 0.1875 0
0.0375 0.1875 0
0.0375 0.175 0
0.05 0.175 0
0.0375 0.1875 0
0.05 0.1875 0
0.025 0.1875 0
0.0375 0.1875 0
0.025 0.2 0
[...]
POINT_DATA 25600
VECTORS velocity double
0 0 0
0.0392598 0 0
0 -0.0392598 0
0.0392295 -0.0392295 0
0.0392598 0 0
0.0784591 0 0
0.0392295 -0.0392295 0
0.0783986 -0.0391388 0
0 -0.0392598 0
0.0392295 -0.0392295 0
0 -0.0784591 0
0.0391388 -0.0783986 0
0.0392295 -0.0392295 0
0.0783986 -0.0391388 0
0.0391388 -0.0783986 0
0.0782172 -0.0782172 0
0.0784591 0 0
0.117537 0 0
0.0783986 -0.0391388 0
0.117447 -0.0389877 0
0.117537 0 0
0.156434 0 0
0.117447 -0.0389877 0
0.156314 -0.0387765 0
0.0783986 -0.0391388 0
0.117447 -0.0389877 0
0.0782172 -0.0782172 0
0.117175 -0.0779153 0
0.117447 -0.0389877 0
0.156314 -0.0387765 0
0.117175 -0.0779153 0
0.155952 -0.0774931 0
0 -0.0784591 0
0.0391388 -0.0783986 0
0 -0.117537 0
0.0389877 -0.117447 0
0.0391388 -0.0783986 0
0.0782172 -0.0782172 0
0.0389877 -0.117447 0
0.0779153 -0.117175 0
0 -0.117537 0
0.0389877 -0.117447 0
0 -0.156434 0
0.0387765 -0.156314 0
0.0389877 -0.117447 0
0.0779153 -0.117175 0
0.0387765 -0.156314 0
0.0774931 -0.155952 0
0.0782172 -0.0782172 0
0.117175 -0.0779153 0
0.0779153 -0.117175 0
0.116723 -0.116723 0
0.117175 -0.0779153 0
0.155952 -0.0774931 0
0.116723 -0.116723 0
0.15535 -0.11609 0
0.0779153 -0.117175 0
0.116723 -0.116723 0
0.0774931 -0.155952 0
0.11609 -0.15535 0
0.116723 -0.116723 0
0.15535 -0.11609 0
0.11609 -0.15535 0
0.154509 -0.154509 0
0.156434 0 0
0.19509 0 0
0.156314 -0.0387765 0
0.19494 -0.0385054 0
0.19509 0 0
0.233445 0 0
0.19494 -0.0385054 0
0.233265 -0.0381751 0
0.156314 -0.0387765 0
0.19494 -0.0385054 0
0.155952 -0.0774931 0
0.194489 -0.0769515 0
0.19494 -0.0385054 0
0.233265 -0.0381751 0
0.194489 -0.0769515 0
0.232726 -0.0762913 0
0.233445 0 0
0.27144 0 0
0.233265 -0.0381751 0
0.271231 -0.0377858 0
0.27144 0 0
0.309017 0 0
0.271231 -0.0377858 0
0.308779 -0.0373383 0
0.233265 -0.0381751 0
0.271231 -0.0377858 0
0.232726 -0.0762913 0
0.270604 -0.0755134 0
0.271231 -0.0377858 0
0.308779 -0.0373383 0
0.270604 -0.0755134 0
0.308064 -0.074619 0
0.155952 -0.0774931 0
0.194489 -0.0769515 0
0.15535 -0.11609 0
0.193738 -0.115279 0
0.194489 -0.0769515 0
0.232726 -0.0762913 0
0.193738 -0.115279 0
0.231827 -0.11429 0
0.15535 -0.11609 0
0.193738 -0.115279 0
0.154509 -0.154509 0
0.192688 -0.153429 0
0.193738 -0.115279 0
0.231827 -0.11429 0
0.192688 -0.153429 0
0.230571 -0.152112 0
0.232726 -0.0762913 0
0.270604 -0.0755134 0
0.231827 -0.11429 0
0.269559 -0.113124 0
0.270604 -0.0755134 0
0.308064 -0.074619 0
0.269559 -0.113124 0
0.306875 -0.111785 0
0.231827 -0.11429 0
0.269559 -0.113124 0
0.230571 -0.152112 0
0.268099 -0.150561 0
0.269559 -0.113124 0
0.306875 -0.111785 0
0.268099 -0.150561 0
0.305212 -0.148778 0
0 -0.156434 0
0.0387765 -0.156314 0
0 -0.19509 0
0.0385054 -0.19494 0
0.0387765 -0.156314 0
0.0774931 -0.155952 0
0.0385054 -0.19494 0
0.0769515 -0.194489 0
0 -0.19509 0
0.0385054 -0.19494 0
0 -0.233445 0
0.0381751 -0.233265 0
0.0385054 -0.19494 0
0.0769515 -0.194489 0
0.0381751 -0.233265 0
0.0762913 -0.232726 0
0.0774931 -0.155952 0
0.11609 -0.15535 0
0.0769515 -0.194489 0
0.115279 -0.193738 0
0.11609 -0.15535 0
0.154509 -0.154509 0
0.115279 -0.193738 0
0.153429 -0.192688 0
0.0769515 -0.194489 0
0.115279 -0.193738 0
0.0762913 -0.232726 0
0.11429 -0.231827 0
0.115279 -0.193738 0
0.153429 -0.192688 0
0.11429 -0.231827 0
0.152112 -0.230571 0
0 -0.233445 0
0.0381751 -0.233265 0
0 -0.27144 0
0.0377858 -0.271231 0
0.0381751 -0.233265 0
0.0762913 -0.232726 0
0.0377858 -0.271231 0
0.0755134 -0.270604 0
0 -0.27144 0
0.0377858 -0.271231 0
0 -0.309017 0
0.0373383 -0.308779 0
0.0377858 -0.271231 0
0.0755134 -0.270604 0
0.0373383 -0.308779 0
0.074619 -0.308064 0
0.0762913 -0.232726 0
0.11429 -0.231827 0
0.0755134 -0.270604 0
0.113124 -0.269559 0
0.11429 -0.231827 0
0.152112 -0.230571 0
0.113124 -0.269559 0
0.150561 -0.268099 0
0.0755134 -0.270604 0
0.113124 -0.269559 0
0.074619 -0.308064 0
0.111785 -0.306875 0
0.113124 -0.269559 0
0.150561 -0.268099 0
0.111785 -0.306875 0
0.148778 -0.305212 0
0.154509 -0.154509 0
0.192688 -0.153429 0
0.153429 -0.192688 0
0.191342 -0.191342 0
0.192688 -0.153429 0
0.230571 -0.152112 0
0.191342 -0.191342 0
0.22896 -0.1897 0
0.153429 -0.192688 0
0.191342 -0.191342 0
0.152112 -0.230571 0
0.1897 -0.22896 0
0.191342 -0.191342 0
0.22896 -0.1897 0
0.1897 -0.22896 0
0.226995 -0.226995 0
0.230571 -0.152112 0
0.268099 -0.150561 0
0.22896 -0.1897 0
0.266225 -0.187766 0
0.268099 -0.150561 0
0.305212 -0.148778 0
0.266225 -0.187766 0
0.303079 -0.185542 0
0.22896 -0.1897 0
0.266225 -0.187766 0
0.226995 -0.226995 0
0.263941 -0.224681 0
0.266225 -0.187766 0
0.303079 -0.185542 0
0.263941 -0.224681 0
0.300479 -0.22202 0
0.152112 -0.230571 0
0.1897 -0.22896 0
0.150561 -0.268099 0
0.187766 -0.266225 0
0.1897 -0.22896 0
0.226995 -0.226995 0
0.187766 -0.266225 0
0.224681 -0.263941 0
0.150561 -0.268099 0
0.187766 -0.266225 0
0.148778 -0.305212 0
0.185542 -0.303079 0
0.187766 -0.266225 0
0.224681 -0.263941 0
0.185542 -0.303079 0
0.22202 -0.300479 0
0.226995 -0.226995 0
0.263941 -0.224681 0
0.224681 -0.263941 0
0.261249 -0.261249 0
0.263941 -0.224681 0
0.300479 -0.22202 0
0.261249 -0.261249 0
0.297415 -0.258155 0
0.224681 -0.263941 0
0.261249 -0.261249 0
0.22202 -0.300479 0
0.258155 -0.297415 0
0.261249 -0.261249 0
0.297415 -0.258155 0
0.258155 -0.297415 0
0.293893 -0.293893 0
0.309017 0 0
0.346117 0 0
0.308779 -0.0373383 0
0.34585 -0.0368332 0
0.346117 0 0
0.382683 0 0
0.34585 -0.0368332 0
0.382388 -0.0362713 0
0.308779 -0.0373383 0
0.34585 -0.0368332 0
0.308064 -0.074619 0
0.34505 -0.0736096 0
0.34585 -0.0368332 0
0.382388 -0.0362713 0
0.34505 -0.0736096 0
0.381504 -0.0724868 0
0.382683 0 0
0.41866 0 0
0.382388 -0.0362713 0
0.418337 -0.0356535 0
0.41866 0 0
0.45399 0 0
0.418337 -0.0356535 0
0.45364 -0.0349808 0
0.382388 -0.0362713 0
0.418337 -0.0356535 0
0.381504 -0.0724868 0
0.417369 -0.0712521 0
0.418337 -0.0356535 0
0.45364 -0.0349808 0
0.417369 -0.0712521 0
0.452591 -0.0699076 0
0.308064 -0.074619 0
0.34505 -0.0736096 0
0.306875 -0.111785 0
0.343718 -0.110273 0
0.34505 -0.0736096 0
0.381504 -0.0724868 0
0.343718 -0.110273 0
0.380031 -0.10859 0
0.306875 -0.111785 0
0.343718 -0.110273 0
0.305212 -0.148778 0
0.341856 -0.146765 0
0.343718 -0.110273 0
0.380031 -0.10859 0
0.341856 -0.146765 0
0.377972 -0.144527 0
0.381504 -0.0724868 0
0.417369 -0.0712521 0
0.380031 -0.10859 0
0.415758 -0.106741 0
0.417369 -0.0712521 0
0.452591 -0.0699076 0
0.415758 -0.106741 0
0.450844 -0.104727 0
0.380031 -0.10859 0
0.415758 -0.106741 0
0.377972 -0.144527 0
0.413505 -0.142065 0
0.415758 -0.106741 0
0.450844 -0.104727 0
0.413505 -0.142065 0
0.448401 -0.139384 0
0.45399 0 0
0.488621 0 0
0.45364 -0.0349808 0
0.488245 -0.034254 0
0.488621 0 0
0.522499 0 0
0.488245 -0.034254 0
0.522096 -0.0334745 0
0.45364 -0.0349808 0
0.488245 -0.034254 0
0.452591 -0.0699076 0
0.487115 -0.0684552 0
0.488245 -0.034254 0
0.522096 -0.0334745 0
0.487115 -0.0684552 0
0.520888 -0.0668974 0
0.522499 0 0
0.55557 0 0
0.522096 -0.0334745 0
0.555142 -0.0326433 0
0.55557 0 0
0.587785 0 0
0.555142 -0.0326433 0
0.587332 -0.0317619 0
0.522096 -0.0334745 0
0.555142 -0.0326433 0
0.520888 -0.0668974 0
0.553858 -0.0652364 0
0.555142 -0.0326433 0
0.587332 -0.0317619 0
0.553858 -0.0652364 0
0.585973 -0.0634747 0
0.452591 -0.0699076 0
0.487115 -0.0684552 0
0.450844 -0.104727 0
0.485234 -0.102551 0
0.487115 -0.0684552 0
0.520888 -0.0668974 0
0.485234 -0.102551 0
0.518877 -0.100217 0
0.450844 -0.104727 0
0.485234 -0.102551 0
0.448401 -0.139384 0
0.482606 -0.136488 0
0.485234 -0.102551 0
0.518877 -0.100217 0
0.482606 -0.136488 0
0.516066 -0.133382 0
0.520888 -0.0668974 0
0.553858 -0.0652364 0
0.518877 -0.100217 0
0.551719 -0.0977288 0
0.553858 -0.0652364 0
0.585973 -0.0634747 0
0.551719 -0.0977288 0
0.583711 -0.0950898 0
0.518877 -0.100217 0
0.551719 -0.0977288 0
0.516066 -0.133382 0
0.54873 -0.130071 0
0.551719 -0.0977288 0
0.583711 -0.0950898 0
0.54873 -0.130071 0
0.580549 -0.126558 0
0.305212 -0.148778 0
0.341856 -0.146765 0
0.303079 -0.185542 0
0.339467 -0.183032 0
0.341856 -0.146765 0
0.377972 -0.144527 0
0.339467 -0.183032 0
0.37533 -0.18024 0
0.303079 -0.185542 0
0.339467 -0.183032 0
0.300479 -0.22202 0
0.336554 -0.219016 0
0.339467 -0.183032 0
0.37533 -0.18024 0
0.336554 -0.219016 0
0.37211 -0.215675 0
0.377972 -0.144527 0
0.413505 -0.142065 0
0.37533 -0.18024 0
0.410615 -0.17717 0
0.413505 -0.142065 0
0.448401 -0.139384 0
0.410615 -0.17717 0
0.445267 -0.173827 0
0.37533 -0.18024 0
0.410615 -0.17717 0
0.37211 -0.215675 0
0.407092 -0.212002 0
0.410615 -0.17717 0
0.445267 -0.173827 0
0.407092 -0.212002 0
0.441447 -0.208001 0
0.300479 -0.22202 0
0.336554 -0.219016 0
0.297415 -0.258155 0
0.333122 -0.254663 0
0.336554 -0.219016 0
0.37211 -0.215675 0
0.333122 -0.254663 0
0.368316 -0.250778 0
0.297415 -0.258155 0
0.333122 -0.254663 0
0.293893 -0.293893 0
0.329177 -0.289917 0
0.333122 -0.254663 0
0.368316 -0.250778 0
0.329177 -0.289917 0
0.363954 -0.285494 0
0.37211 -0.215675 0
0.407092 -0.212002 0
0.368316 -0.250778 0
0.402941 -0.246507 0
0.407092 -0.212002 0
0.441447 -0.208001 0
0.402941 -0.246507 0
0.436946 -0.241855 0
0.368316 -0.250778 0
0.402941 -0.246507 0
0.363954 -0.285494 0
0.398169 -0.280632 0
0.402941 -0.246507 0
0.436946 -0.241855 0
0.398169 -0.280632 0
0.431771 -0.275336 0
0.448401 -0.139384 0
0.482606 -0.136488 0
0.445267 -0.173827 0
0.479233 -0.170216 0
0.482606 -0.136488 0
0.516066 -0.133382 0
0.479233 -0.170216 0
0.512459 -0.166342 0
0.445267 -0.173827 0
0.479233 -0.170216 0
0.441447 -0.208001 0
0.475121 -0.20368 0
0.479233 -0.170216 0
0.512459 -0.166342 0
0.475121 -0.20368 0
0.508062 -0.199045 0
0.516066 -0.133382 0
0.54873 -0.130071 0
0.512459 -0.166342 0
0.544895 -0.162212 0
0.54873 -0.130071 0
0.580549 -0.126558 0
0.544895 -0.162212 0
0.576491 -0.157831 0
0.512459 -0.166342 0
0.544895 -0.162212 0
0.508062 -0.199045 0
0.54022 -0.194103 0
0.544895 -0.162212 0
0.576491 -0.157831 0
0.54022 -0.194103 0
0.571545 -0.188861 0
0.441447 -0.208001 0
0.475121 -0.20368 0
0.436946 -0.241855 0
0.470276 -0.236831 0
0.475121 -0.20368 0
0.508062 -0.199045 0
0.470276 -0.236831 0
0.502881 -0.231441 0
0.436946 -0.241855 0
0.470276 -0.236831 0
0.431771 -0.275336 0
0.464706 -0.269616 0
0.470276 -0.236831 0
0.502881 -0.231441 0
0.464706 -0.269616 0
0.496926 -0.26348 0
0.508062 -0.199045 0
0.54022 -0.194103 0
0.502881 -0.231441 0
0.534711 -0.225694 0
0.54022 -0.194103 0
0.571545 -0.188861 0
0.534711 -0.225694 0
0.565717 -0.2196 0
0.502881 -0.231441 0
0.534711 -0.225694 0
0.496926 -0.26348 0
0.528379 -0.256938 0
0.534711 -0.225694 0
0.565717 -0.2196 0
0.528379 -0.256938 0
0.559017 -0.25 0
0 -0.309017 0
0.0373383 -0.308779 0
0 -0.346117 0
0.0368332 -0.34585 0
0.0373383 -0.308779 0
0.074619 -0.308064 0
0.0368332 -0.34585 0
0.0736096 -0.34505 0
0 -0.346117 0
0.0368332 -0.34585 0
0 -0.382683 0
0.0362713 -0.382388 0
0.0368332 -0.34585 0
0.0736096 -0.34505 0
0.0362713 -0.382388 0
0.0724868 -0.381504 0
0.074619 -0.308064 0
0.111785 -0.306875 0
0.0736096 -0.34505 0
0.110273 -0.343718 0
0.111785 -0.306875 0
0.148778 -0.305212 0
0.110273 -0.343718 0
0.146765 -0.341856 0
0.0736096 -0.34505 0
0.110273 -0.343718 0
0.0724868 -0.381504 0
0.10859 -0.380031 0
0.110273 -0.343718 0
0.146765 -0.341856 0
0.10859 -0.380031 0
0.144527 -0.377972 0
0 -0.382683 0
0.0362713 -0.382388 0
0 -0.41866 0
0.0356535 -0.418337 0
0.0362713 -0.382388 0
0.0724868 -0.381504 0
0.0356535 -0.418337 0
0.0712521 -0.417369 0
0 -0.41866 0
0.0356535 -0.418337 0
0 -0.45399 0
0.0349808 -0.45364 0
0.0356535 -0.418337 0
0.0712521 -0.417369 0
0.0349808 -0.45364 0
0.0699076 -0.452591 0
0.0724868 -0.381504 0
0.10859 -0.380031 0
0.0712521 -0.417369 0
0.106741 -0.415758 0
0.10859 -0.380031 0
0.144527 -0.377972 0
0.106741 -0.415758 0
0.142065 -0.413505 0
0.0712521 -0.417369 0
0.106741 -0.415758 0
0.0699076 -0.452591 0
0.104727 -0.450844 0
0.106741 -0.415758 0
0.142065 -0.413505 0
0.104727 -0.450844 0
0.139384 -0.448401 0
0.148778 -0.305212 0
0.185542 -0.303079 0
0.146765 -0.341856 0
0.183032 -0.339467 0
0.185542 -0.303079 0
0.22202 -0.300479 0
0.183032 -0.339467 0
0.219016 -0.336554 0
0.146765 -0.341856 0
0.183032 -0.339467 0
0.144527 -0.377972 0
0.18024 -0.37533 0
0.183032 -0.339467 0
0.219016 -0.336554 0
0.18024 -0.37533 0
0.215675 -0.37211 0
0.22202 -0.300479 0
0.258155 -0.297415 0
0.219016 -0.336554 0
0.254663 -0.333122 0
0.258155 -0.297415 0
0.293893 -0.293893 0
0.254663 -0.333122 0
0.289917 -0.329177 0
0.219016 -0.336554 0
0.254663 -0.333122 0
0.215675 -0.37211 0
0.250778 -0.368316 0
0.254663 -0.333122 0
0.289917 -0.329177 0
0.250778 -0.368316 0
0.285494 -0.363954 0
0.144527 -0.377972 0
0.18024 -0.37533 0
0.142065 -0.413505 0
0.17717 -0.410615 0
0.18024 -0.37533 0
0.215675 -0.37211 0
0.17717 -0.410615 0
0.212002 -0.407092 0
0.142065 -0.413505 0
0.17717 -0.410615 0
0.139384 -0.448401 0
0.173827 -0.445267 0
0.17717 -0.410615 0
0.212002 -0.407092 0
0.173827 -0.445267 0
0.208001 -0.441447 0
0.215675 -0.37211 0
0.250778 -0.368316 0
0.212002 -0.407092 0
0.246507 -0.402941 0
0.250778 -0.368316 0
0.285494 -0.363954 0
0.246507 -0.402941 0
0.280632 -0.398169 0
0.212002 -0.407092 0
0.246507 -0.402941 0
0.208001 -0.441447 0
0.241855 -0.436946 0
0.246507 -0.402941 0
0.280632 -0.398169 0
0.241855 -0.436946 0
0.275336 -0.431771 0
0 -0.45399 0
0.0349808 -0.45364 0
0 -0.488621 0
0.034254 -0.488245 0
0.0349808 -0.45364 0
0.0699076 -0.452591 0
0.034254 -0.488245 0
0.0684552 -0.487115 0
0 -0.488621 0
0.034254 -0.488245 0
0 -0.522499 0
0.0334745 -0.522096 0
0.034254 -0.488245 0
0.0684552 -0.487115 0
0.0334745 -0.522096 0
0.0668974 -0.520888 0
0.0699076 -0.452591 0
0.104727 -0.450844 0
0.0684552 -0.487115 0
0.102551 -0.485234 0
0.104727 -0.450844 0
0.139384 -0.448401 0
0.102551 -0.485234 0
0.136488 -0.482606 0
0.0684552 -0.487115 0
0.102551 -0.485234 0
0.0668974 -0.520888 0
0.100217 -0.518877 0
0.102551 -0.485234 0
0.136488 -0.482606 0
0.100217 -0.518877 0
0.133382 -0.516066 0
0 -0.522499 0
0.0334745 -0.522096 0
0 -0.55557 0
0.0326433 -0.555142 0
0.0334745 -0.522096 0
0.0668974 -0.520888 0
0.0326433 -0.555142 0
0.0652364 -0.553858 0
0 -0.55557 0
0.0326433 -0.555142 0
0 -0.587785 0
0.0317619 -0.587332 0
0.0326433 -0.555142 0
0.0652364 -0.553858 0
0.0317619 -0.587332 0
0.0634747 -0.585973 0
0.0668974 -0.520888 0
0.100217 -0.518877 0
0.0652364 -0.553858 0
0.0977288 -0.551719 0
0.100217 -0.518877 0
0.133382 -0.516066 0
0.0977288 -0.551719 0
0.130071 -0.54873 0
0.0652364 -0.553858 0
0.0977288 -0.551719 0
0.0634747 -0.585973 0
0.0950897 -0.583711 0
0.0977288 -0.551719 0
0.130071 -0.54873 0
0.0950897 -0.583711 0
0.126558 -0.580549 0
0.139384 -0.448401 0
0.173827 -0.445267 0
0.136488 -0.482606 0
0.170216 -0.479233 0
0.173827 -0.445267 0
0.208001 -0.441447 0
0.170216 -0.479233 0
0.20368 -0.475121 0
0.136488 -0.482606 0
0.170216 -0.479233 0
0.133382 -0.516066 0
0.166342 -0.512459 0
0.170216 -0.479233 0
0.20368 -0.475121 0
0.166342 -0.512459 0
0.199045 -0.508062 0
0.208001 -0.441447 0
0.241855 -0.436946 0
0.20368 -0.475121 0
0.236831 -0.470276 0
0.241855 -0.436946 0
0.275336 -0.431771 0
0.236831 -0.470276 0
0.269616 -0.464706 0
0.20368 -0.475121 0
0.236831 -0.470276 0
0.199045 -0.508062 0
0.231441 -0.502881 0
0.236831 -0.470276 0
0.269616 -0.464706 0
0.231441 -0.502881 0
0.26348 -0.496926 0
0.133382 -0.516066 0
0.166342 -0.512459 0
0.130071 -0.54873 0
0.162212 -0.544895 0
0.166342 -0.512459 0
0.199045 -0.508062 0
0.162212 -0.544895 0
0.194103 -0.54022 0
0.130071 -0.54873 0
0.162212 -0.544895 0
0.126558 -0.580549 0
0.157831 -0.576491 0
0.162212 -0.544895 0
0.194103 -0.54022 0
0.157831 -0.576491 0
0.188861 -0.571545 0
0.199045 -0.508062 0
0.231441 -0.502881 0
0.194103 -0.54022 0
0.225694 -0.534711 0
0.231441 -0.502881 0
0.26348 -0.496926 0
0.225694 -0.534711 0
0.256938 -0.528379 0
0.194103 -0.54022 0
0.225694 -0.534711 0
0.188861 -0.571545 0
0.2196 -0.565717 0
0.225694 -0.534711 0
0.256938 -0.528379 0
0.2196 -0.565717 0
0.25 -0.559017 0
0.293893 -0.293893 0
0.329177 -0.289917 0
0.289917 -0.329177 0
0.324724 -0.324724 0
0.329177 -0.289917 0
0.363954 -0.285494 0
0.324724 -0.324724 0
0.35903 -0.31977 0
0.289917 -0.329177 0
0.324724 -0.324724 0
0.285494 -0.363954 0
0.31977 -0.35903 0
0.324724 -0.324724 0
0.35903 -0.31977 0
0.31977 -0.35903 0
0.353553 -0.353553 0
0.363954 -0.285494 0
0.398169 -0.280632 0
0.35903 -0.31977 0
0.392783 -0.314324 0
0.398169 -0.280632 0
0.431771 -0.275336 0
0.392783 -0.314324 0
0.42593 -0.308393 0
0.35903 -0.31977 0
0.392783 -0.314324 0
0.353553 -0.353553 0
0.386791 -0.347531 0
0.392783 -0.314324 0
0.42593 -0.308393 0
0.386791 -0.347531 0
0.419433 -0.340973 0
0.285494 -0.363954 0
0.31977 -0.35903 0
0.280632 -0.398169 0
0.314324 -0.392783 0
0.31977 -0.35903 0
0.353553 -0.353553 0
0.314324 -0.392783 0
0.347531 -0.386791 0
0.280632 -0.398169 0
0.314324 -0.392783 0
0.275336 -0.431771 0
0.308393 -0.42593 0
0.314324 -0.392783 0
0.347531 -0.386791 0
0.308393 -0.42593 0
0.340973 -0.419433 0
0.353553 -0.353553 0
0.386791 -0.347531 0
0.347531 -0.386791 0
0.380203 -0.380203 0
0.386791 -0.347531 0
0.419433 -0.340973 0
0.380203 -0.380203 0
0.412288 -0.373029 0
0.347531 -0.386791 0
0.380203 -0.380203 0
0.340973 -0.419433 0
0.373029 -0.412288 0
0.380203 -0.380203 0
0.412288 -0.373029 0
0.373029 -0.412288 0
0.404509 -0.404509 0
0.431771 -0.275336 0
0.464706 -0.269616 0
0.42593 -0.308393 0
0.45842 -0.301986 0
0.464706 -0.269616 0
0.496926 -0.26348 0
0.45842 -0.301986 0
0.490204 -0.295113 0
0.42593 -0.308393 0
0.45842 -0.301986 0
0.419433 -0.340973 0
0.451427 -0.33389 0
0.45842 -0.301986 0
0.490204 -0.295113 0
0.451427 -0.33389 0
0.482726 -0.326291 0
0.496926 -0.26348 0
0.528379 -0.256938 0
0.490204 -0.295113 0
0.521231 -0.287786 0
0.528379 -0.256938 0
0.559017 -0.25 0
0.521231 -0.287786 0
0.551455 -0.280015 0
0.490204 -0.295113 0
0.521231 -0.287786 0
0.482726 -0.326291 0
0.51328 -0.31819 0
0.521231 -0.287786 0
0.551455 -0.280015 0
0.51328 -0.31819 0
0.543043 -0.309597 0
0.419433 -0.340973 0
0.451427 -0.33389 0
0.412288 -0.373029 0
0.443738 -0.365279 0
0.451427 -0.33389 0
0.482726 -0.326291 0
0.443738 -0.365279 0
0.474504 -0.356966 0
0.412288 -0.373029 0
0.443738 -0.365279 0
0.404509 -0.404509 0
0.435365 -0.396105 0
0.443738 -0.365279 0
0.474504 -0.356966 0
0.435365 -0.396105 0
0.46555 -0.387091 0
0.482726 -0.326291 0
0.51328 -0.31819 0
0.474504 -0.356966 0
0.504537 -0.348103 0
0.51328 -0.31819 0
0.543043 -0.309597 0
0.504537 -0.348103 0
0.533793 -0.338703 0
0.474504 -0.356966 0
0.504537 -0.348103 0
0.46555 -0.387091 0
0.495017 -0.377479 0
0.504537 -0.348103 0
0.533793 -0.338703 0
0.495017 -0.377479 0
0.523721 -0.367286 0
0.275336 -0.431771 0
0.308393 -0.42593 0
0.269616 -0.464706 0
0.301986 -0.45842 0
0.308393 -0.42593 0
0.340973 -0.419433 0
0.301986 -0.45842 0
0.33389 -0.451427 0
0.269616 -0.464706 0
0.301986 -0.45842 0
0.26348 -0.496926 0
0.295113 -0.490204 0
0.301986 -0.45842 0
0.33389 -0.451427 0
0.295113 -0.490204 0
0.326291 -0.482726 0
0.340973 -0.419433 0
0.373029 -0.412288 0
0.33389 -0.451427 0
0.365279 -0.443738 0
0.373029 -0.412288 0
0.404509 -0.404509 0
0.365279 -0.443738 0
0.396105 -0.435365 0
0.33389 -0.451427 0
0.365279 -0.443738 0
0.326291 -0.482726 0
0.356966 -0.474504 0
0.365279 -0.443738 0
0.396105 -0.435365 0
0.356966 -0.474504 0
0.387091 -0.46555 0
0.26348 -0.496926 0
0.295113 -0.490204 0
0.256938 -0.528379 0
0.287786 -0.521231 0
0.295113 -0.490204 0
0.326291 -0.482726 0
0.287786 -0.521231 0
0.31819 -0.51328 0
0.256938 -0.528379 0
0.287786 -0.521231 0
0.25 -0.559017 0
0.280015 -0.551455 0
0.287786 -0.521231 0
0.31819 -0.51328 0
0.280015 -0.551455 0
0.309597 -0.543043 0
0.326291 -0.482726 0
0.356966 -0.474504 0
0.31819 -0.51328 0
0.348103 -0.504537 0
0.356966 -0.474504 0
0.387091 -0.46555 0
0.348103 -0.504537 0
0.377479 -0.495017 0
0.31819 -0.51328 0
0.348103 -0.504537 0
0.309597 -0.543043 0
0.338703 -0.533793 0
0.348103 -0.504537 0
0.377479 -0.495017 0
0.338703 -0.533793 0
0.367286 -0.523721 0
0.404509 -0.404509 0
0.435365 -0.396105 0
0.396105 -0.435365 0
0.42632 -0.42632 0
0.435365 -0.396105 0
0.46555 -0.387091 0
0.42632 -0.42632 0
0.455878 -0.416618 0
0.396105 -0.435365 0
0.42632 -0.42632 0
0.387091 -0.46555 0
0.416618 -0.455878 0
0.42632 -0.42632 0
0.455878 -0.416618 0