# vtk DataFile Version 3.0
#This file was generated by the deal.II library on 2026/5/29 at 10:56:37
ASCII
DATASET UNSTRUCTURED_GRID

POINTS 400 double
0 0 0
0.1 0 0
0 0.1 0
0.1 0.1 0
0.1 0 0
0.2 0 0
0.1 0.1 0
0.2 0.1 0
0 0.1 0
0.1 0.1 0
0 0.2 0
0.1 0.2 0
0.1 0.1 0
0.2 0.1 0
0.1 0.2 0
0.2 0.2 0
0 0.2 0
0.1 0.2 0
0 0.3 0
0.1 0.3 0
0.1 0.2 0
0.2 0.2 0
0.1 0.3 0
0.2 0.3 0
0 0.3 0
0.1 0.3 0
0 0.4 0
0.1 0.4 0
0.1 0.3 0
0.2 0.3 0
0.1 0.4 0
0.2 0.4 0
0 0.4 0
0.1 0.4 0
0 0.5 0
0.1 0.5 0
0.1 0.4 0
0.2 0.4 0
0.1 0.5 0
0.2 0.5 0
0 0.5 0
0.1 0.5 0
0 0.6 0
0.1 0.6 0
0.1 0.5 0
0.2 0.5 0
0.1 0.6 0
0.2 0.6 0
0 0.6 0
0.1 0.6 0
0 0.7 0
0.1 0.7 0
0.1 0.6 0
0.2 0.6 0
0.1 0.7 0
0.2 0.7 0
0 0.7 0
0.1 0.7 0
0 0.8 0
0.1 0.8 0
0.1 0.7 0
0.2 0.7 0
0.1 0.8 0
0.2 0.8 0
0 0.8 0
0.1 0.8 0
0 0.9 0
0.1 0.9 0
0.1 0.8 0
0.2 0.8 0
0.1 0.9 0
0.2 0.9 0
0 0.9 0
0.1 0.9 0
0 1 0
0.1 1 0
0.1 0.9 0
0.2 0.9 0
0.1 1 0
0.2 1 0
0.2 0 0
0.3 0 0
0.2 0.1 0
0.3 0.1 0
0.3 0 0
0.4 0 0
0.3 0.1 0
0.4 0.1 0
0.2 0.1 0
0.3 0.1 0
0.2 0.2 0
0.3 0.2 0
0.3 0.1 0
0.4 0.1 0
0.3 0.2 0
0.4 0.2 0
0.2 0.2 0
0.3 0.2 0
0.2 0.3 0
0.3 0.3 0
0.3 0.2 0
0.4 0.2 0
0.3 0.3 0
0.4 0.3 0
0.2 0.3 0
0.3 0.3 0
0.2 0.4 0
0.3 0.4 0
0.3 0.3 0
0.4 0.3 0
0.3 0.4 0
0.4 0.4 0
0.2 0.4 0
0.3 0.4 0
0.2 0.5 0
0.3 0.5 0
0.3 0.4 0
0.4 0.4 0
0.3 0.5 0
0.4 0.5 0
0.2 0.5 0
0.3 0.5 0
0.2 0.6 0
0.3 0.6 0
0.3 0.5 0
0.4 0.5 0
0.3 0.6 0
0.4 0.6 0
0.2 0.6 0
0.3 0.6 0
0.2 0.7 0
0.3 0.7 0
0.3 0.6 0
0.4 0.6 0
0.3 0.7 0
0.4 0.7 0
0.2 0.7 0
0.3 0.7 0
0.2 0.8 0
0.3 0.8 0
0.3 0.7 0
0.4 0.7 0
0.3 0.8 0
0.4 0.8 0
0.2 0.8 0
0.3 0.8 0
0.2 0.9 0
0.3 0.9 0
0.3 0.8 0
0.4 0.8 0
0.3 0.9 0
0.4 0.9 0
0.2 0.9 0
0.3 0.9 0
0.2 1 0
0.3 1 0
0.3 0.9 0
0.4 0.9 0
0.3 1 0
0.4 1 0
0.4 0 0
0.5 0 0
0.4 0.1 0
0.5 0.1 0
0.5 0 0
0.6 0 0
0.5 0.1 0
0.6 0.1 0
0.4 0.1 0
0.5 0.1 0
0.4 0.2 0
0.5 0.2 0
0.5 0.1 0
0.6 0.1 0
0.5 0.2 0
0.6 0.2 0
0.4 0.2 0
0.5 0.2 0
0.4 0.3 0
0.5 0.3 0
0.5 0.2 0
0.6 0.2 0
0.5 0.3 0
0.6 0.3 0
0.4 0.3 0
0.5 0.3 0
0.4 0.4 0
0.5 0.4 0
0.5 0.3 0
0.6 0.3 0
0.5 0.4 0
0.6 0.4 0
0.4 0.4 0
0.5 0.4 0
0.4 0.5 0
0.5 0.5 0
0.5 0.4 0
0.6 0.4 0
0.5 0.5 0
0.6 0.5 0
0.4 0.5 0
0.5 0.5 0
0.4 0.6 0
0.5 0.6 0
0.5 0.5 0
0.6 0.5 0
0.5 0.6 0
0.6 0.6 0
0.4 0.6 0
0.5 0.6 0
0.4 0.7 0
0.5 0.7 0
0.5 0.6 0
0.6 0.6 0
0.5 0.7 0
0.6 0.7 0
0.4 0.7 0
0.5 0.7 0
0.4 0.8 0
0.5 0.8 0
0.5 0.7 0
0.6 0.7 0
0.5 0.8 0
0.6 0.8 0
0.4 0.8 0
0.5 0.8 0
0.4 0.9 0
0.5 0.9 0
0.5 0.8 0
0.6 0.8 0
0.5 0.9 0
0.6 0.9 0
0.4 0.9 0
0.5 0.9 0
0.4 1 0
0.5 1 0
0.5 0.9 0
0.6 0.9 0
0.5 1 0
0.6 1 0
0.6 0 0
0.7 0 0
0.6 0.1 0
0.7 0.1 0
0.7 0 0
0.8 0 0
0.7 0.1 0
0.8 0.1 0
0.6 0.1 0
0.7 0.1 0
0.6 0.2 0
0.7 0.2 0
0.7 0.1 0
0.8 0.1 0
0.7 0.2 0
0.8 0.2 0
0.6 0.2 0
0.7 0.2 0
0.6 0.3 0
0.7 0.3 0
0.7 0.2 0
0.8 0.2 0
0.7 0.3 0
0.8 0.3 0
0.6 0.3 0
0.7 0.3 0
0.6 0.4 0
0.7 0.4 0
0.7 0.3 0
0.8 0.3 0
0.7 0.4 0
0.8 0.4 0
0.6 0.4 0
0.7 0.4 0
0.6 0.5 0
0.7 0.5 0
0.7 0.4 0
0.8 0.4 0
0.7 0.5 0
0.8 0.5 0
0.6 0.5 0
0.7 0.5 0
0.6 0.6 0
0.7 0.6 0
0.7 0.5 0
0.8 0.5 0
0.7 0.6 0
0.8 0.6 0
0.6 0.6 0
0.7 0.6 0
0.6 0.7 0
0.7 0.7 0
0.7 0.6 0
0.8 0.6 0
0.7 0.7 0
0.8 0.7 0
0.6 0.7 0
0.7 0.7 0
0.6 0.8 0
0.7 0.8 0
0.7 0.7 0
0.8 0.7 0
0.7 0.8 0
0.8 0.8 0
0.6 0.8 0
0.7 0.8 0
0.6 0.9 0
0.7 0.9 0
0.7 0.8 0
0.8 0.8 0
0.7 0.9 0
0.8 0.9 0
0.6 0.9 0
0.7 0.9 0
0.6 1 0
0.7 1 0
0.7 0.9 0
0.8 0.9 0
0.7 1 0
0.8 1 0
0.8 0 0
0.9 0 0
0.8 0.1 0
0.9 0.1 0
0.9 0 0
1 0 0
0.9 0.1 0
1 0.1 0
0.8 0.1 0
0.9 0.1 0
0.8 0.2 0
0.9 0.2 0
0.9 0.1 0
1 0.1 0
0.9 0.2 0
1 0.2 0
0.8 0.2 0
0.9 0.2 0
0.8 0.3 0
0.9 0.3 0
0.9 0.2 0
1 0.2 0
0.9 0.3 0
1 0.3 0
0.8 0.3 0
0.9 0.3 0
0.8 0.4 0
0.9 0.4 0
0.9 0.3 0
1 0.3 0
0.9 0.4 0
1 0.4 0
0.8 0.4 0
0.9 0.4 0
0.8 0.5 0
0.9 0.5 0
0.9 0.4 0
1 0.4 0
0.9 0.5 0
1 0.5 0
0.8 0.5 0
0.9 0.5 0
0.8 0.6 0
0.9 0.6 0
0.9 0.5 0
1 0.5 0
0.9 0.6 0
1 0.6 0
0.8 0.6 0
0.9 0.6 0
0.8 0.7 0
0.9 0.7 0
0.9 0.6 0
1 0.6 0
0.9 0.7 0
1 0.7 0
0.8 0.7 0
0.9 0.7 0
0.8 0.8 0
0.9 0.8 0
0.9 0.7 0
1 0.7 0
0.9 0.8 0
1 0.8 0
0.8 0.8 0
0.9 0.8 0
0.8 0.9 0
0.9 0.9 0
0.9 0.8 0
1 0.8 0
0.9 0.9 0
1 0.9 0
0.8 0.9 0
0.9 0.9 0
0.8 1 0
0.9 1 0
0.9 0.9 0
1 0.9 0
0.9 1 0
1 1 0

CELLS 100 500
4	0	1	3	2
4	4	5	7	6
4	8	9	11	10
4	12	13	15	14
4	16	17	19	18
4	20	21	23	22
4	24	25	27	26
4	28	29	31	30
4	32	33	35	34
4	36	37	39	38
4	40	41	43	42
4	44	45	47	46
4	48	49	51	50
4	52	53	55	54
4	56	57	59	58
4	60	61	63	62
4	64	65	67	66
4	68	69	71	70
4	72	73	75	74
4	76	77	79	78
4	80	81	83	82
4	84	85	87	86
4	88	89	91	90
4	92	93	95	94
4	96	97	99	98
4	100	101	103	102
4	104	105	107	106
4	108	109	111	110
4	112	113	115	114
4	116	117	119	118
4	120	121	123	122
4	124	125	127	126
4	128	129	131	130
4	132	133	135	134
4	136	137	139	138
4	140	141	143	142
4	144	145	147	146
4	148	149	151	150
4	152	153	155	154
4	156	157	159	158
4	160	161	163	162
4	164	165	167	166
4	168	169	171	170
4	172	173	175	174
4	176	177	179	178
4	180	181	183	182
4	184	185	187	186
4	188	189	191	190
4	192	193	195	194
4	196	197	199	198
4	200	201	203	202
4	204	205	207	206
4	208	209	211	210
4	212	213	215	214
4	216	217	219	218
4	220	221	223	222
4	224	225	227	226
4	228	229	231	230
4	232	233	235	234
4	236	237	239	238
4	240	241	243	242
4	244	245	247	246
4	248	249	251	250
4	252	253	255	254
4	256	257	259	258
4	260	261	263	262
4	264	265	267	266
4	268	269	271	270
4	272	273	275	274
4	276	277	279	278
4	280	281	283	282
4	284	285	287	286
4	288	289	291	290
4	292	293	295	294
4	296	297	299	298
4	300	301	303	302
4	304	305	307	306
4	308	309	311	310
4	312	313	315	314
4	316	317	319	318
4	320	321	323	322
4	324	325	327	326
4	328	329	331	330
4	332	333	335	334
4	336	337	339	338
4	340	341	343	342
4	344	345	347	346
4	348	349	351	350
4	352	353	355	354
4	356	357	359	358
4	360	361	363	362
4	364	365	367	366
4	368	369	371	370
4	372	373	375	374
4	376	377	379	378
4	380	381	383	382
4	384	385	387	386
4	388	389	391	390
4	392	393	395	394
4	396	397	399	398

CELL_TYPES 100
 9 9 9 9 9 9 9 9 9 9 9 9 9 9 9 9 9 9 9 9 9 9 9 9 9 9 9 9 9 9 9 9 9 9 9 9 9 9 9 9 9 9 9 9 9 9 9 9 9 9 9 9 9 9 9 9 9 9 9 9 9 9 9 9 9 9 9 9 9 9 9 9 9 9 9 9 9 9 9 9 9 9 9 9 9 9 9 9 9 9 9 9 9 9 9 9 9 9 9 9
POINT_DATA 400
VECTORS velocity double
0 0 0
0.309017 0 0
0 -0.309017 0
0.293893 -0.293898 0
0.309017 0 0
0.587785 0 0
0.293893 -0.293898 0
0.559018 -0.250008 0
0 -0.309017 0
0.293893 -0.293898 0
0 -0.587785 0
0.25 -0.559023 0
0.293893 -0.293898 0
0.559018 -0.250008 0
0.25 -0.559023 0
0.475528 -0.475538 0
0 -0.587785 0
0.25 -0.559023 0
0 -0.809017 0
0.181635 -0.769426 0
0.25 -0.559023 0
0.475528 -0.475538 0
0.181635 -0.769426 0
0.34549 -0.654517 0
0 -0.809017 0
0.181635 -0.769426 0
0 -0.951057 0
0.0954895 -0.904511 0
0.181635 -0.769426 0
0.34549 -0.654517 0
0.0954895 -0.904511 0
0.181632 -0.769426 0
0 -0.951057 0
0.0954895 -0.904511 0
0 -1 0
-2.71698e-06 -0.951057 0
0.0954895 -0.904511 0
0.181632 -0.769426 0
-2.71698e-06 -0.951057 0
-5.27171e-06 -0.809017 0
0 -1 0
-2.71698e-06 -0.951057 0
0 -0.951057 0
-0.0954948 -0.904507 0
-2.71698e-06 -0.951057 0
-5.27171e-06 -0.809017 0
-0.0954948 -0.904507 0
-0.181642 -0.769418 0
0 -0.951057 0
-0.0954948 -0.904507 0
0 -0.809017 0
-0.181639 -0.769418 0
-0.0954948 -0.904507 0
-0.181642 -0.769418 0
-0.181639 -0.769418 0
-0.345498 -0.654504 0
0 -0.809017 0
-0.181639 -0.769418 0
0 -0.587785 0
-0.250004 -0.559013 0
-0.181639 -0.769418 0
-0.345498 -0.654504 0
-0.250004 -0.559013 0
-0.475534 -0.475524 0
0 -0.587785 0
-0.250004 -0.559013 0
0 -0.309017 0
-0.293896 -0.293889 0
-0.250004 -0.559013 0
-0.475534 -0.475524 0
-0.293896 -0.293889 0
-0.559021 -0.249997 0
0 -0.309017 0
-0.293896 -0.293889 0
0 -1.22465e-16 0
-0.309017 -1.16471e-16 0
-0.293896 -0.293889 0
-0.559021 -0.249997 0
-0.309017 -1.16471e-16 0
-0.587785 -9.9076e-17 0
0.587785 0 0
0.809017 0 0
0.559018 -0.250008 0
0.769422 -0.181644 0
0.809017 0 0
0.951057 0 0
0.769422 -0.181644 0
0.90451 -0.0954995 0
0.559018 -0.250008 0
0.769422 -0.181644 0
0.475528 -0.475538 0
0.654509 -0.345503 0
0.769422 -0.181644 0
0.90451 -0.0954995 0
0.654509 -0.345503 0
0.769422 -0.181647 0
0.475528 -0.475538 0
0.654509 -0.345503 0
0.34549 -0.654517 0
0.475527 -0.47554 0
0.654509 -0.345503 0
0.769422 -0.181647 0
0.475527 -0.47554 0
0.559017 -0.250012 0
0.34549 -0.654517 0
0.475527 -0.47554 0
0.181632 -0.769426 0
0.249996 -0.559024 0
0.475527 -0.47554 0
0.559017 -0.250012 0
0.249996 -0.559024 0
0.293891 -0.293901 0
0.181632 -0.769426 0
0.249996 -0.559024 0
-5.27171e-06 -0.809017 0
-6.26184e-06 -0.587786 0
0.249996 -0.559024 0
0.293891 -0.293901 0
-6.26184e-06 -0.587786 0
-3.48652e-06 -0.309018 0
-5.27171e-06 -0.809017 0
-6.26184e-06 -0.587786 0
-0.181642 -0.769418 0
-0.250007 -0.559013 0
-6.26184e-06 -0.587786 0
-3.48652e-06 -0.309018 0
-0.250007 -0.559013 0
-0.293897 -0.293887 0
-0.181642 -0.769418 0
-0.250007 -0.559013 0
-0.345498 -0.654504 0
-0.475535 -0.475522 0
-0.250007 -0.559013 0
-0.293897 -0.293887 0
-0.475535 -0.475522 0
-0.559021 -0.249993 0
-0.345498 -0.654504 0
-0.475535 -0.475522 0
-0.475534 -0.475524 0
-0.654514 -0.345486 0
-0.475535 -0.475522 0
-0.559021 -0.249993 0
-0.654514 -0.345486 0
-0.769423 -0.18163 0
-0.475534 -0.475524 0
-0.654514 -0.345486 0
-0.559021 -0.249997 0
-0.769424 -0.181633 0
-0.654514 -0.345486 0
-0.769423 -0.18163 0
-0.769424 -0.181633 0
-0.904509 -0.0954891 0
-0.559021 -0.249997 0
-0.769424 -0.181633 0
-0.587785 -9.9076e-17 0
-0.809017 -7.19829e-17 0
-0.769424 -0.181633 0
-0.904509 -0.0954891 0
-0.809017 -7.19829e-17 0
-0.951057 -3.78437e-17 0
0.951057 0 0
1 0 0
0.90451 -0.0954995 0
0.951058 -6.9468e-06 0
1 0 0
0.951057 0 0
0.951058 -6.9468e-06 0
0.904511 0.0954863 0
0.90451 -0.0954995 0
0.951058 -6.9468e-06 0
0.769422 -0.181647 0
0.80902 -1.06398e-05 0
0.951058 -6.9468e-06 0
0.904511 0.0954863 0
0.80902 -1.06398e-05 0
0.769425 0.181627 0
0.769422 -0.181647 0
0.80902 -1.06398e-05 0
0.559017 -0.250012 0
0.587789 -1.17341e-05 0
0.80902 -1.06398e-05 0
0.769425 0.181627 0
0.587789 -1.17341e-05 0
0.559025 0.249991 0
0.559017 -0.250012 0
0.587789 -1.17341e-05 0
0.293891 -0.293901 0
0.309021 -8.33311e-06 0
0.587789 -1.17341e-05 0
0.559025 0.249991 0
0.309021 -8.33311e-06 0
0.293903 0.293886 0
0.293891 -0.293901 0
0.309021 -8.33311e-06 0
-3.48652e-06 -0.309018 0
3.89779e-06 -4.71815e-07 0
0.309021 -8.33311e-06 0
0.293903 0.293886 0
3.89779e-06 -4.71815e-07 0
1.11545e-05 0.309017 0
-3.48652e-06 -0.309018 0
3.89779e-06 -4.71815e-07 0
-0.293897 -0.293887 0
-0.309013 6.30795e-06 0
3.89779e-06 -4.71815e-07 0
1.11545e-05 0.309017 0
-0.309013 6.30795e-06 0
-0.293882 0.293899 0
-0.293897 -0.293887 0
-0.309013 6.30795e-06 0
-0.559021 -0.249993 0
-0.587782 7.59539e-06 0
-0.309013 6.30795e-06 0
-0.293882 0.293899 0
-0.587782 7.59539e-06 0
-0.559009 0.250007 0
-0.559021 -0.249993 0
-0.587782 7.59539e-06 0
-0.769423 -0.18163 0
-0.809015 4.92999e-06 0
-0.587782 7.59539e-06 0
-0.559009 0.250007 0
-0.809015 4.92999e-06 0
-0.769415 0.181639 0
-0.769423 -0.18163 0
-0.809015 4.92999e-06 0
-0.904509 -0.0954891 0
-0.951055 1.30519e-06 0
-0.809015 4.92999e-06 0
-0.769415 0.181639 0
-0.951055 1.30519e-06 0
-0.904506 0.0954916 0
-0.904509 -0.0954891 0
-0.951055 1.30519e-06 0
-0.951057 -3.78437e-17 0
-1 -3.46914e-32 0
-0.951055 1.30519e-06 0
-0.904506 0.0954916 0
-1 -3.46914e-32 0
-0.951057 3.78437e-17 0
0.951057 0 0
0.809017 0 0
0.904511 0.0954863 0
0.769423 0.181633 0
0.809017 0 0
0.587785 0 0
0.769423 0.181633 0
0.559018 0.25 0
0.904511 0.0954863 0
0.769423 0.181633 0
0.769425 0.181627 0
0.654514 0.345486 0
0.769423 0.181633 0
0.559018 0.25 0
0.654514 0.345486 0
0.475533 0.475527 0
0.769425 0.181627 0
0.654514 0.345486 0
0.559025 0.249991 0
0.475538 0.475523 0
0.654514 0.345486 0
0.475533 0.475527 0
0.475538 0.475523 0
0.345499 0.654507 0
0.559025 0.249991 0
0.475538 0.475523 0
0.293903 0.293886 0
0.250012 0.559013 0
0.475538 0.475523 0
0.345499 0.654507 0
0.250012 0.559013 0
0.181645 0.769419 0
0.293903 0.293886 0
0.250012 0.559013 0
1.11545e-05 0.309017 0
1.30677e-05 0.587785 0
0.250012 0.559013 0
0.181645 0.769419 0
1.30677e-05 0.587785 0
1.02981e-05 0.809017 0
1.11545e-05 0.309017 0
1.30677e-05 0.587785 0
-0.293882 0.293899 0
-0.249988 0.559021 0
1.30677e-05 0.587785 0
1.02981e-05 0.809017 0
-0.249988 0.559021 0
-0.181626 0.769423 0
-0.293882 0.293899 0
-0.249988 0.559021 0
-0.559009 0.250007 0
-0.475518 0.475533 0
-0.249988 0.559021 0
-0.181626 0.769423 0
-0.475518 0.475533 0
-0.345483 0.654511 0
-0.559009 0.250007 0
-0.475518 0.475533 0
-0.769415 0.181639 0
-0.654502 0.345494 0
-0.475518 0.475533 0
-0.345483 0.654511 0
-0.654502 0.345494 0
-0.475523 0.475529 0
-0.769415 0.181639 0
-0.654502 0.345494 0
-0.904506 0.0954916 0
-0.769418 0.181635 0
-0.654502 0.345494 0
-0.475523 0.475529 0
-0.769418 0.181635 0
-0.559014 0.249998 0
-0.904506 0.0954916 0
-0.769418 0.181635 0
-0.951057 3.78437e-17 0
-0.809017 7.19829e-17 0
-0.769418 0.181635 0
-0.559014 0.249998 0
-0.809017 7.19829e-17 0
-0.587785 9.9076e-17 0
0.587785 0 0
0.309017 0 0
0.559018 0.25 0
0.293893 0.293895 0
0.309017 0 0
1.22465e-16 0 0
0.293893 0.293895 0
1.16471e-16 0.309017 0
0.559018 0.25 0
0.293893 0.293895 0
0.475533 0.475527 0
0.250002 0.559019 0
0.293893 0.293895 0
1.16471e-16 0.309017 0
0.250002 0.559019 0
9.9076e-17 0.587785 0
0.475533 0.475527 0
0.250002 0.559019 0
0.345499 0.654507 0
0.181639 0.769422 0
0.250002 0.559019 0
9.9076e-17 0.587785 0
0.181639 0.769422 0
7.19829e-17 0.809017 0
0.345499 0.654507 0
0.181639 0.769422 0
0.181645 0.769419 0
0.0954963 0.904509 0
0.181639 0.769422 0
7.19829e-17 0.809017 0
0.0954963 0.904509 0
3.78437e-17 0.951057 0
0.181645 0.769419 0
0.0954963 0.904509 0
1.02981e-05 0.809017 0
5.53501e-06 0.951057 0
0.0954963 0.904509 0
3.78437e-17 0.951057 0
5.53501e-06 0.951057 0
7.4988e-33 1 0
1.02981e-05 0.809017 0
5.53501e-06 0.951057 0
-0.181626 0.769423 0
-0.0954859 0.904508 0
5.53501e-06 0.951057 0
7.4988e-33 1 0
-0.0954859 0.904508 0
-3.78437e-17 0.951057 0
-0.181626 0.769423 0
-0.0954859 0.904508 0
-0.345483 0.654511 0
-0.181631 0.76942 0
-0.0954859 0.904508 0
-3.78437e-17 0.951057 0
-0.181631 0.76942 0
-7.19829e-17 0.809017 0
-0.345483 0.654511 0
-0.181631 0.76942 0
-0.475523 0.475529 0
-0.249997 0.559016 0
-0.181631 0.76942 0
-7.19829e-17 0.809017 0
-0.249997 0.559016 0
-9.9076e-17 0.587785 0
-0.475523 0.475529 0
-0.249997 0.559016 0
-0.559014 0.249998 0
-0.293891 0.29389 0
-0.249997 0.559016 0
-9.9076e-17 0.587785 0
-0.293891 0.29389 0
-1.16471e-16 0.309017 0
-0.559014 0.249998 0
-0.293891 0.29389 0
-0.587785 9.9076e-17 0
-0.309017 1.16471e-16 0
-0.293891 0.29389 0
-1.16471e-16 0.309017 0
-0.309017 1.16471e-16 0
-1.22465e-16 1.22465e-16 0
VECTORS velocity_error double
0 0 0
0 0 0
0 0 0
-3.34139e-07 5.85914e-06 0
0 0 0
0 0 0
-3.34139e-07 5.85914e-06 0
-6.75441e-07 7.75124e-06 0
0 0 0
-3.34139e-07 5.85914e-06 0
0 0 0
-9.23704e-08 6.48517e-06 0
-3.34139e-07 5.85914e-06 0
-6.75441e-07 7.75124e-06 0
-9.23704e-08 6.48517e-06 0
5.0243e-08 9.9192e-06 0
0 0 0
-9.23704e-08 6.48517e-06 0
0 0 0
9.68217e-07 5.1648e-06 0
-9.23704e-08 6.48517e-06 0
5.0243e-08 9.9192e-06 0
9.68217e-07 5.1648e-06 0
1.90256e-06 8.69919e-06 0
0 0 0
9.68217e-07 5.1648e-06 0
0 0 0
1.95735e-06 2.9461e-06 0
9.68217e-07 5.1648e-06 0
1.90256e-06 8.69919e-06 0
1.95735e-06 2.9461e-06 0
3.86794e-06 4.81386e-06 0
0 0 0
1.95735e-06 2.9461e-06 0
0 0 0
2.71698e-06 5.1956e-07 0
1.95735e-06 2.9461e-06 0
3.86794e-06 4.81386e-06 0
2.71698e-06 5.1956e-07 0
5.27171e-06 4.09005e-07 0
0 0 0
2.71698e-06 5.1956e-07 0
0 0 0
3.27048e-06 -1.64129e-06 0
2.71698e-06 5.1956e-07 0
5.27171e-06 4.09005e-07 0
3.27048e-06 -1.64129e-06 0
6.08391e-06 -2.89332e-06 0
0 0 0
3.27048e-06 -1.64129e-06 0
0 0 0
3.66241e-06 -3.23796e-06 0
3.27048e-06 -1.64129e-06 0
6.08391e-06 -2.89332e-06 0
3.66241e-06 -3.23796e-06 0
6.35692e-06 -4.53351e-06 0
0 0 0
3.66241e-06 -3.23796e-06 0
0 0 0
3.71722e-06 -4.11028e-06 0
3.66241e-06 -3.23796e-06 0
6.35692e-06 -4.53351e-06 0
3.71722e-06 -4.11028e-06 0
5.85086e-06 -4.59253e-06 0
0 0 0
3.71722e-06 -4.11028e-06 0
0 0 0
2.92613e-06 -3.86922e-06 0
3.71722e-06 -4.11028e-06 0
5.85086e-06 -4.59253e-06 0
2.92613e-06 -3.86922e-06 0
3.63902e-06 -3.38708e-06 0
0 0 0
2.92613e-06 -3.86922e-06 0
0 0 0
0 0 0
2.92613e-06 -3.86922e-06 0
3.63902e-06 -3.38708e-06 0
0 0 0
0 0 0
0 0 0
0 0 0
-6.75441e-07 7.75124e-06 0
-1.10332e-06 8.34917e-06 0
0 0 0
0 0 0
-1.10332e-06 8.34917e-06 0
-1.53931e-06 7.99933e-06 0
-6.75441e-07 7.75124e-06 0
-1.10332e-06 8.34917e-06 0
5.0243e-08 9.9192e-06 0
-3.02841e-07 1.14819e-05 0
-1.10332e-06 8.34917e-06 0
-1.53931e-06 7.99933e-06 0
-3.02841e-07 1.14819e-05 0
-1.31048e-06 1.16475e-05 0
5.0243e-08 9.9192e-06 0
-3.02841e-07 1.14819e-05 0
1.90256e-06 8.69919e-06 0
1.67212e-06 1.14417e-05 0
-3.02841e-07 1.14819e-05 0
-1.31048e-06 1.16475e-05 0
1.67212e-06 1.14417e-05 0
-1.1122e-07 1.24802e-05 0
1.90256e-06 8.69919e-06 0
1.67212e-06 1.14417e-05 0
3.86794e-06 4.81386e-06 0
4.15545e-06 7.02892e-06 0
1.67212e-06 1.14417e-05 0
-1.1122e-07 1.24802e-05 0
4.15545e-06 7.02892e-06 0
1.67709e-06 8.48795e-06 0
3.86794e-06 4.81386e-06 0
4.15545e-06 7.02892e-06 0
5.27171e-06 4.09005e-07 0
6.26184e-06 5.10807e-07 0
4.15545e-06 7.02892e-06 0
1.67709e-06 8.48795e-06 0
6.26184e-06 5.10807e-07 0
3.48652e-06 6.50759e-07 0
5.27171e-06 4.09005e-07 0
6.26184e-06 5.10807e-07 0
6.08391e-06 -2.89332e-06 0
7.35795e-06 -4.2268e-06 0
6.26184e-06 5.10807e-07 0
3.48652e-06 6.50759e-07 0
7.35795e-06 -4.2268e-06 0
4.202e-06 -5.43589e-06 0
6.08391e-06 -2.89332e-06 0
7.35795e-06 -4.2268e-06 0
6.35692e-06 -4.53351e-06 0
7.22423e-06 -5.87143e-06 0
7.35795e-06 -4.2268e-06 0
4.202e-06 -5.43589e-06 0
7.22423e-06 -5.87143e-06 0
3.56304e-06 -7.05234e-06 0
6.35692e-06 -4.53351e-06 0
7.22423e-06 -5.87143e-06 0
5.85086e-06 -4.59253e-06 0
5.61527e-06 -5.14195e-06 0
7.22423e-06 -5.87143e-06 0
3.56304e-06 -7.05234e-06 0
5.61527e-06 -5.14195e-06 0
2.1549e-06 -5.39374e-06 0
5.85086e-06 -4.59253e-06 0
5.61527e-06 -5.14195e-06 0
3.63902e-06 -3.38708e-06 0
2.76813e-06 -3.09836e-06 0
5.61527e-06 -5.14195e-06 0
2.1549e-06 -5.39374e-06 0
2.76813e-06 -3.09836e-06 0
8.63162e-07 -2.37679e-06 0
3.63902e-06 -3.38708e-06 0
2.76813e-06 -3.09836e-06 0
0 0 0
0 0 0
2.76813e-06 -3.09836e-06 0
8.63162e-07 -2.37679e-06 0
0 0 0
0 0 0
0 0 0
0 0 0
-1.53931e-06 7.99933e-06 0
-1.89839e-06 6.9468e-06 0
0 0 0
0 0 0
-1.89839e-06 6.9468e-06 0
-2.06368e-06 5.22101e-06 0
-1.53931e-06 7.99933e-06 0
-1.89839e-06 6.9468e-06 0
-1.31048e-06 1.16475e-05 0
-2.87525e-06 1.06398e-05 0
-1.89839e-06 6.9468e-06 0
-2.06368e-06 5.22101e-06 0
-2.87525e-06 1.06398e-05 0
-4.57423e-06 8.45424e-06 0
-1.31048e-06 1.16475e-05 0
-2.87525e-06 1.06398e-05 0
-1.1122e-07 1.24802e-05 0
-3.64489e-06 1.17341e-05 0
-2.87525e-06 1.06398e-05 0
-4.57423e-06 8.45424e-06 0
-3.64489e-06 1.17341e-05 0
-7.70688e-06 9.3178e-06 0
-1.1122e-07 1.24802e-05 0
-3.64489e-06 1.17341e-05 0
1.67709e-06 8.48795e-06 0
-4.0509e-06 8.33311e-06 0
-3.64489e-06 1.17341e-05 0
-7.70688e-06 9.3178e-06 0
-4.0509e-06 8.33311e-06 0
-1.02456e-05 6.54896e-06 0
1.67709e-06 8.48795e-06 0
-4.0509e-06 8.33311e-06 0
3.48652e-06 6.50759e-07 0
-3.89779e-06 4.71815e-07 0
-4.0509e-06 8.33311e-06 0
-1.02456e-05 6.54896e-06 0
-3.89779e-06 4.71815e-07 0
-1.11545e-05 1.51077e-07 0
3.48652e-06 6.50759e-07 0
-3.89779e-06 4.71815e-07 0
4.202e-06 -5.43589e-06 0
-3.55122e-06 -6.30795e-06 0
-3.89779e-06 4.71815e-07 0
-1.11545e-05 1.51077e-07 0
-3.55122e-06 -6.30795e-06 0
-1.03078e-05 -5.95961e-06 0
4.202e-06 -5.43589e-06 0
-3.55122e-06 -6.30795e-06 0
3.56304e-06 -7.05234e-06 0
-3.16613e-06 -7.59539e-06 0
-3.55122e-06 -6.30795e-06 0
-1.03078e-05 -5.95961e-06 0
-3.16613e-06 -7.59539e-06 0
-8.38326e-06 -6.97881e-06 0
3.56304e-06 -7.05234e-06 0
-3.16613e-06 -7.59539e-06 0
2.1549e-06 -5.39374e-06 0
-2.35686e-06 -4.92999e-06 0
-3.16613e-06 -7.59539e-06 0
-8.38326e-06 -6.97881e-06 0
-2.35686e-06 -4.92999e-06 0
-5.60659e-06 -3.834e-06 0
2.1549e-06 -5.39374e-06 0
-2.35686e-06 -4.92999e-06 0
8.63162e-07 -2.37679e-06 0
-1.11557e-06 -1.30519e-06 0
-2.35686e-06 -4.92999e-06 0
-5.60659e-06 -3.834e-06 0
-1.11557e-06 -1.30519e-06 0
-2.50332e-06 -1.07187e-07 0
8.63162e-07 -2.37679e-06 0
-1.11557e-06 -1.30519e-06 0
0 0 0
0 0 0
-1.11557e-06 -1.30519e-06 0
-2.50332e-06 -1.07187e-07 0
0 0 0
0 0 0
0 0 0
0 0 0
-2.06368e-06 5.22101e-06 0
-1.94854e-06 2.81889e-06 0
0 0 0
0 0 0
-1.94854e-06 2.81889e-06 0
-1.51428e-06 -1.53469e-08 0
-2.06368e-06 5.22101e-06 0
-1.94854e-06 2.81889e-06 0
-4.57423e-06 8.45424e-06 0
-5.52494e-06 5.09243e-06 0
-1.94854e-06 2.81889e-06 0
-1.51428e-06 -1.53469e-08 0
-5.52494e-06 5.09243e-06 0
-4.69008e-06 1.1143e-06 0
-4.57423e-06 8.45424e-06 0
-5.52494e-06 5.09243e-06 0
-7.70688e-06 9.3178e-06 0
-9.40984e-06 5.72581e-06 0
-5.52494e-06 5.09243e-06 0
-4.69008e-06 1.1143e-06 0
-9.40984e-06 5.72581e-06 0
-7.47554e-06 1.82465e-06 0
-7.70688e-06 9.3178e-06 0
-9.40984e-06 5.72581e-06 0
-1.02456e-05 6.54896e-06 0
-1.21011e-05 4.04524e-06 0
-9.40984e-06 5.72581e-06 0
-7.47554e-06 1.82465e-06 0
-1.21011e-05 4.04524e-06 0
-9.39758e-06 1.4028e-06 0
-1.02456e-05 6.54896e-06 0
-1.21011e-05 4.04524e-06 0
-1.11545e-05 1.51077e-07 0
-1.30677e-05 3.20466e-08 0
-1.21011e-05 4.04524e-06 0
-9.39758e-06 1.4028e-06 0
-1.30677e-05 3.20466e-08 0
-1.02981e-05 -1.09378e-07 0
-1.11545e-05 1.51077e-07 0
-1.30677e-05 3.20466e-08 0
-1.03078e-05 -5.95961e-06 0
-1.22147e-05 -4.241e-06 0
-1.30677e-05 3.20466e-08 0
-1.02981e-05 -1.09378e-07 0
-1.22147e-05 -4.241e-06 0
-9.98004e-06 -1.91527e-06 0
-1.03078e-05 -5.95961e-06 0
-1.22147e-05 -4.241e-06 0
-8.38326e-06 -6.97881e-06 0
-9.92512e-06 -5.19242e-06 0
-1.22147e-05 -4.241e-06 0
-9.98004e-06 -1.91527e-06 0
-9.92512e-06 -5.19242e-06 0
-8.33182e-06 -2.44103e-06 0
-8.38326e-06 -6.97881e-06 0
-9.92512e-06 -5.19242e-06 0
-5.60659e-06 -3.834e-06 0
-6.66099e-06 -2.35054e-06 0
-9.92512e-06 -5.19242e-06 0
-8.33182e-06 -2.44103e-06 0
-6.66099e-06 -2.35054e-06 0
-5.65657e-06 -6.21751e-07 0
-5.60659e-06 -3.834e-06 0
-6.66099e-06 -2.35054e-06 0
-2.50332e-06 -1.07187e-07 0
-2.9888e-06 9.81642e-07 0
-6.66099e-06 -2.35054e-06 0
-5.65657e-06 -6.21751e-07 0
-2.9888e-06 9.81642e-07 0
-2.55387e-06 1.76969e-06 0
-2.50332e-06 -1.07187e-07 0
-2.9888e-06 9.81642e-07 0
0 0 0
0 0 0
-2.9888e-06 9.81642e-07 0
-2.55387e-06 1.76969e-06 0
0 0 0
0 0 0
0 0 0
0 0 0
-1.51428e-06 -1.53469e-08 0
-6.16797e-07 -2.821e-06 0
0 0 0
0 0 0
-6.16797e-07 -2.821e-06 0
0 0 0
-1.51428e-06 -1.53469e-08 0
-6.16797e-07 -2.821e-06 0
-4.69008e-06 1.1143e-06 0
-2.26432e-06 -2.23185e-06 0
-6.16797e-07 -2.821e-06 0
0 0 0
-2.26432e-06 -2.23185e-06 0
0 0 0
-4.69008e-06 1.1143e-06 0
-2.26432e-06 -2.23185e-06 0
-7.47554e-06 1.82465e-06 0
-3.70512e-06 -1.35247e-06 0
-2.26432e-06 -2.23185e-06 0
0 0 0
-3.70512e-06 -1.35247e-06 0
0 0 0
-7.47554e-06 1.82465e-06 0
-3.70512e-06 -1.35247e-06 0
-9.39758e-06 1.4028e-06 0
-4.83604e-06 -6.77275e-07 0
-3.70512e-06 -1.35247e-06 0
0 0 0
-4.83604e-06 -6.77275e-07 0
0 0 0
-9.39758e-06 1.4028e-06 0
-4.83604e-06 -6.77275e-07 0
-1.02981e-05 -1.09378e-07 0
-5.53501e-06 -2.63255e-07 0
-4.83604e-06 -6.77275e-07 0
0 0 0
-5.53501e-06 -2.63255e-07 0
0 0 0
-1.02981e-05 -1.09378e-07 0
-5.53501e-06 -2.63255e-07 0
-9.98004e-06 -1.91527e-06 0
-5.64044e-06 1.92555e-08 0
-5.53501e-06 -2.63255e-07 0
0 0 0
-5.64044e-06 1.92555e-08 0
0 0 0
-9.98004e-06 -1.91527e-06 0
-5.64044e-06 1.92555e-08 0
-8.33182e-06 -2.44103e-06 0
-4.94903e-06 4.48117e-07 0
-5.64044e-06 1.92555e-08 0
0 0 0
-4.94903e-06 4.48117e-07 0
0 0 0
-8.33182e-06 -2.44103e-06 0
-4.94903e-06 4.48117e-07 0
-5.65657e-06 -6.21751e-07 0
-3.46409e-06 1.33186e-06 0
-4.94903e-06 4.48117e-07 0
0 0 0
-3.46409e-06 1.33186e-06 0
0 0 0
-5.65657e-06 -6.21751e-07 0
-3.46409e-06 1.33186e-06 0
-2.55387e-06 1.76969e-06 0
-1.38237e-06 2.31621e-06 0
-3.46409e-06 1.33186e-06 0
0 0 0
-1.38237e-06 2.31621e-06 0
0 0 0
-2.55387e-06 1.76969e-06 0
-1.38237e-06 2.31621e-06 0
0 0 0
0 0 0
-1.38237e-06 2.31621e-06 0
0 0 0
0 0 0
0 0 0
SCALARS pressure double 1
LOOKUP_TABLE default
-0.000435245 -0.000351596 0.308983 0.293872 -0.000351596 -0.000289316 0.293872 0.249983 0.308983 0.293872 0.587852 0.559083 0.293872 0.249983 0.559083 0.475584 0.587852 0.559083 0.809126 0.769526 0.559083 0.475584 0.769526 0.654597 0.809126 0.769526 0.951189 0.904635 0.769526 0.654597 0.904635 0.769528 0.951189 0.904635 1.00014 0.951191 0.904635 0.769528 0.951191 0.809131 1.00014 0.951191 0.951196 0.904637 0.951191 0.809131 0.904637 0.76953 0.951196 0.904637 0.809136 0.76953 0.904637 0.76953 0.76953 0.654601 0.809136 0.76953 0.587862 0.559088 0.76953 0.654601 0.559088 0.475588 0.587862 0.559088 0.308989 0.293875 0.559088 0.475588 0.293875 0.249985 0.308989 0.293875 -0.000435421 -0.000352506 0.293875 0.249985 -0.000352506 -0.000291775 -0.000289316 -0.0002096 0.249983 0.181622 -0.0002096 -0.000111578 0.181622 0.095481 0.249983 0.181622 0.475584 0.34553 0.181622 0.095481 0.34553 0.181653 0.475584 0.34553 0.654597 0.475591 0.34553 0.181653 0.475591 0.250031 0.654597 0.475591 0.769528 0.559094 0.475591 0.250031 0.559094 0.293931 0.769528 0.559094 0.809131 0.587868 0.559094 0.293931 0.587868 0.309059 0.809131 0.587868 0.76953 0.559096 0.587868 0.309059 0.559096 0.293934 0.76953 0.559096 0.654601 0.475595 0.559096 0.293934 0.475595 0.250034 0.654601 0.475595 0.475588 0.345534 0.475595 0.250034 0.345534 0.181656 0.475588 0.345534 0.249985 0.181623 0.345534 0.181656 0.181623 0.0954828 0.249985 0.181623 -0.000291775 -0.000212687 0.181623 0.0954828 -0.000212687 -0.000114629 -0.000111578 -2.91154e-06 0.095481 -6.10859e-06 -2.91154e-06 0.000106231 -6.10859e-06 -0.0954926 0.095481 -6.10859e-06 0.181653 -6.1573e-06 -6.10859e-06 -0.0954926 -6.1573e-06 -0.181665 0.181653 -6.1573e-06 0.250031 -5.3739e-06 -6.1573e-06 -0.181665 -5.3739e-06 -0.250042 0.250031 -5.3739e-06 0.293931 -4.2913e-06 -5.3739e-06 -0.250042 -4.2913e-06 -0.29394 0.293931 -4.2913e-06 0.309059 -3.07703e-06 -4.2913e-06 -0.29394 -3.07703e-06 -0.309065 0.309059 -3.07703e-06 0.293934 -1.97542e-06 -3.07703e-06 -0.309065 -1.97542e-06 -0.293938 0.293934 -1.97542e-06 0.250034 -1.71538e-06 -1.97542e-06 -0.293938 -1.71538e-06 -0.250038 0.250034 -1.71538e-06 0.181656 -2.58316e-06 -1.71538e-06 -0.250038 -2.58316e-06 -0.181661 0.181656 -2.58316e-06 0.0954828 -4.07836e-06 -2.58316e-06 -0.181661 -4.07836e-06 -0.0954903 0.0954828 -4.07836e-06 -0.000114629 -5.44845e-06 -4.07836e-06 -0.0954903 -5.44845e-06 0.000104602 0.000106231 0.000205362 -0.0954926 -0.181632 0.000205362 0.000286045 -0.181632 -0.249991 -0.0954926 -0.181632 -0.181665 -0.345542 -0.181632 -0.249991 -0.345542 -0.475595 -0.181665 -0.345542 -0.250042 -0.475602 -0.345542 -0.475595 -0.475602 -0.654609 -0.250042 -0.475602 -0.29394 -0.559103 -0.475602 -0.654609 -0.559103 -0.769539 -0.29394 -0.559103 -0.309065 -0.587875 -0.559103 -0.769539 -0.587875 -0.80914 -0.309065 -0.587875 -0.293938 -0.559101 -0.587875 -0.80914 -0.559101 -0.769536 -0.293938 -0.559101 -0.250038 -0.475599 -0.559101 -0.769536 -0.475599 -0.654605 -0.250038 -0.475599 -0.181661 -0.345538 -0.475599 -0.654605 -0.345538 -0.475591 -0.181661 -0.345538 -0.0954903 -0.181629 -0.345538 -0.475591 -0.181629 -0.249989 -0.0954903 -0.181629 0.000104602 0.000204953 -0.181629 -0.249989 0.000204953 0.000286982 0.000286045 0.000348681 -0.249991 -0.293879 0.000348681 0.000435142 -0.293879 -0.30899 -0.249991 -0.293879 -0.475595 -0.559093 -0.293879 -0.30899 -0.559093 -0.587864 -0.475595 -0.559093 -0.654609 -0.769538 -0.559093 -0.587864 -0.769538 -0.809141 -0.654609 -0.769538 -0.769539 -0.904647 -0.769538 -0.809141 -0.904647 -0.951203 -0.769539 -0.904647 -0.80914 -0.951201 -0.904647 -0.951203 -0.951201 -1.00015 -0.80914 -0.951201 -0.769536 -0.904644 -0.951201 -1.00015 -0.904644 -0.951198 -0.769536 -0.904644 -0.654605 -0.769534 -0.904644 -0.951198 -0.769534 -0.809133 -0.654605 -0.769534 -0.475591 -0.55909 -0.769534 -0.809133 -0.55909 -0.587857 -0.475591 -0.55909 -0.249989 -0.293876 -0.55909 -0.587857 -0.293876 -0.308987 -0.249989 -0.293876 0.000286982 0.000350551 -0.293876 -0.308987 0.000350551 0.000434966 
SCALARS pressure_error double 1
LOOKUP_TABLE default