# vtk DataFile Version 3.0
#This file was generated by the deal.II library on 2026/5/29 at 10:56:29
ASCII
DATASET UNSTRUCTURED_GRID

POINTS 100 double
0 0 0
0.2 0 0
0 0.2 0
0.2 0.2 0
0 0.2 0
0.2 0.2 0
0 0.4 0
0.2 0.4 0
0 0.4 0
0.2 0.4 0
0 0.6 0
0.2 0.6 0
0 0.6 0
0.2 0.6 0
0 0.8 0
0.2 0.8 0
0 0.8 0
0.2 0.8 0
0 1 0
0.2 1 0
0.2 0 0
0.4 0 0
0.2 0.2 0
0.4 0.2 0
0.2 0.2 0
0.4 0.2 0
0.2 0.4 0
0.4 0.4 0
0.2 0.4 0
0.4 0.4 0
0.2 0.6 0
0.4 0.6 0
0.2 0.6 0
0.4 0.6 0
0.2 0.8 0
0.4 0.8 0
0.2 0.8 0
0.4 0.8 0
0.2 1 0
0.4 1 0
0.4 0 0
0.6 0 0
0.4 0.2 0
0.6 0.2 0
0.4 0.2 0
0.6 0.2 0
0.4 0.4 0
0.6 0.4 0
0.4 0.4 0
0.6 0.4 0
0.4 0.6 0
0.6 0.6 0
0.4 0.6 0
0.6 0.6 0
0.4 0.8 0
0.6 0.8 0
0.4 0.8 0
0.6 0.8 0
0.4 1 0
0.6 1 0
0.6 0 0
0.8 0 0
0.6 0.2 0
0.8 0.2 0
0.6 0.2 0
0.8 0.2 0
0.6 0.4 0
0.8 0.4 0
0.6 0.4 0
0.8 0.4 0
0.6 0.6 0
0.8 0.6 0
0.6 0.6 0
0.8 0.6 0
0.6 0.8 0
0.8 0.8 0
0.6 0.8 0
0.8 0.8 0
0.6 1 0
0.8 1 0
0.8 0 0
1 0 0
0.8 0.2 0
1 0.2 0
0.8 0.2 0
1 0.2 0
0.8 0.4 0
1 0.4 0
0.8 0.4 0
1 0.4 0
0.8 0.6 0
1 0.6 0
0.8 0.6 0
1 0.6 0
0.8 0.8 0
1 0.8 0
0.8 0.8 0
1 0.8 0
0.8 1 0
1 1 0

CELLS 25 125
4	0	1	3	2
4	4	5	7	6
4	8	9	11	10
4	12	13	15	14
4	16	17	19	18
4	20	21	23	22
4	24	25	27	26
4	28	29	31	30
4	32	33	35	34
4	36	37	39	38
4	40	41	43	42
4	44	45	47	46
4	48	49	51	50
4	52	53	55	54
4	56	57	59	58
4	60	61	63	62
4	64	65	67	66
4	68	69	71	70
4	72	73	75	74
4	76	77	79	78
4	80	81	83	82
4	84	85	87	86
4	88	89	91	90
4	92	93	95	94
4	96	97	99	98

CELL_TYPES 25
 9 9 9 9 9 9 9 9 9 9 9 9 9 9 9 9 9 9 9 9 9 9 9 9 9
POINT_DATA 100
VECTORS velocity double
0 0 0
0.587785 0 0
0 -0.587785 0
0.475525 -0.475628 0
0 -0.587785 0
0.475525 -0.475628 0
0 -0.951057 0
0.181608 -0.769512 0
0 -0.951057 0
0.181608 -0.769512 0
0 -0.951057 0
-0.181681 -0.769418 0
0 -0.951057 0
-0.181681 -0.769418 0
0 -0.587785 0
-0.475576 -0.475473 0
0 -0.587785 0
-0.475576 -0.475473 0
0 -1.22465e-16 0
-0.587785 -9.9076e-17 0
0.587785 0 0
0.951057 0 0
0.475525 -0.475628 0
0.769486 -0.181733 0
0.475525 -0.475628 0
0.769486 -0.181733 0
0.181608 -0.769512 0
0.293943 -0.293954 0
0.181608 -0.769512 0
0.293943 -0.293954 0
-0.181681 -0.769418 0
-0.293878 -0.293867 0
-0.181681 -0.769418 0
-0.293878 -0.293867 0
-0.475576 -0.475473 0
-0.769445 -0.181557 0
-0.475576 -0.475473 0
-0.769445 -0.181557 0
-0.587785 -9.9076e-17 0
-0.951057 -3.78437e-17 0
0.951057 0 0
0.951057 0 0
0.769486 -0.181733 0
0.76956 0.181564 0
0.769486 -0.181733 0
0.76956 0.181564 0
0.293943 -0.293954 0
0.294024 0.293873 0
0.293943 -0.293954 0
0.294024 0.293873 0
-0.293878 -0.293867 0
-0.293797 0.293948 0
-0.293878 -0.293867 0
-0.293797 0.293948 0
-0.769445 -0.181557 0
-0.76937 0.181725 0
-0.769445 -0.181557 0
-0.76937 0.181725 0
-0.951057 -3.78437e-17 0
-0.951057 3.78437e-17 0
0.951057 0 0
0.587785 0 0
0.76956 0.181564 0
0.475636 0.475517 0
0.76956 0.181564 0
0.475636 0.475517 0
0.294024 0.293873 0
0.181777 0.769437 0
0.294024 0.293873 0
0.181777 0.769437 0
-0.293797 0.293948 0
-0.181513 0.769493 0
-0.293797 0.293948 0
-0.181513 0.769493 0
-0.76937 0.181725 0
-0.475465 0.475584 0
-0.76937 0.181725 0
-0.475465 0.475584 0
-0.951057 3.78437e-17 0
-0.587785 9.9076e-17 0
0.587785 0 0
1.22465e-16 0 0
0.475636 0.475517 0
9.9076e-17 0.587785 0
0.475636 0.475517 0
9.9076e-17 0.587785 0
0.181777 0.769437 0
3.78437e-17 0.951057 0
0.181777 0.769437 0
3.78437e-17 0.951057 0
-0.181513 0.769493 0
-3.78437e-17 0.951057 0
-0.181513 0.769493 0
-3.78437e-17 0.951057 0
-0.475465 0.475584 0
-9.9076e-17 0.587785 0
-0.475465 0.475584 0
-9.9076e-17 0.587785 0
-0.587785 9.9076e-17 0
-1.22465e-16 1.22465e-16 0
VECTORS velocity_error double
0 0 0
0 0 0
0 0 0
3.31477e-06 9.95339e-05 0
0 0 0
3.31477e-06 9.95339e-05 0
0 0 0
2.72586e-05 9.09931e-05 0
0 0 0
2.72586e-05 9.09931e-05 0
0 0 0
4.56586e-05 -2.43883e-06 0
0 0 0
4.56586e-05 -2.43883e-06 0
0 0 0
4.74834e-05 -5.5366e-05 0
0 0 0
4.74834e-05 -5.5366e-05 0
0 0 0
0 0 0
0 0 0
0 0 0
3.31477e-06 9.95339e-05 0
-6.47969e-05 9.74835e-05 0
3.31477e-06 9.95339e-05 0
-6.47969e-05 9.74835e-05 0
2.72586e-05 9.09931e-05 0
-5.00485e-05 6.1351e-05 0
2.72586e-05 9.09931e-05 0
-5.00485e-05 6.1351e-05 0
4.56586e-05 -2.43883e-06 0
-1.45309e-05 -2.58344e-05 0
4.56586e-05 -2.43883e-06 0
-1.45309e-05 -2.58344e-05 0
4.74834e-05 -5.5366e-05 0
2.3758e-05 -7.90844e-05 0
4.74834e-05 -5.5366e-05 0
2.3758e-05 -7.90844e-05 0
0 0 0
0 0 0
0 0 0
0 0 0
-6.47969e-05 9.74835e-05 0
-0.000139207 7.11478e-05 0
-6.47969e-05 9.74835e-05 0
-0.000139207 7.11478e-05 0
-5.00485e-05 6.1351e-05 0
-0.000131447 2.00467e-05 0
-5.00485e-05 6.1351e-05 0
-0.000131447 2.00467e-05 0
-1.45309e-05 -2.58344e-05 0
-9.59294e-05 -5.55651e-05 0
-1.45309e-05 -2.58344e-05 0
-9.59294e-05 -5.55651e-05 0
2.3758e-05 -7.90844e-05 0
-5.06522e-05 -8.95484e-05 0
2.3758e-05 -7.90844e-05 0
-5.06522e-05 -8.95484e-05 0
0 0 0
0 0 0
0 0 0
0 0 0
-0.000139207 7.11478e-05 0
-0.000107491 1.12711e-05 0
-0.000139207 7.11478e-05 0
-0.000107491 1.12711e-05 0
-0.000131447 2.00467e-05 0
-0.000141374 -1.65834e-05 0
-0.000131447 2.00467e-05 0
-0.000141374 -1.65834e-05 0
-9.59294e-05 -5.55651e-05 0
-0.000122974 -7.19725e-05 0
-9.59294e-05 -5.55651e-05 0
-0.000122974 -7.19725e-05 0
-5.06522e-05 -8.95484e-05 0
-6.33227e-05 -5.54396e-05 0
-5.06522e-05 -8.95484e-05 0
-6.33227e-05 -5.54396e-05 0
0 0 0
0 0 0
0 0 0
0 0 0
-0.000107491 1.12711e-05 0
0 0 0
-0.000107491 1.12711e-05 0
0 0 0
-0.000141374 -1.65834e-05 0
0 0 0
-0.000141374 -1.65834e-05 0
0 0 0
-0.000122974 -7.19725e-05 0
0 0 0
-0.000122974 -7.19725e-05 0
0 0 0
-6.33227e-05 -5.54396e-05 0
0 0 0
-6.33227e-05 -5.54396e-05 0
0 0 0
0 0 0
0 0 0
SCALARS pressure double 1
LOOKUP_TABLE default
-0.443573 -0.322144 0.269373 0.321593 0.269373 0.321593 0.907485 0.897928 0.907485 0.897928 0.90713 0.897899 0.90713 0.897899 0.26829 0.321593 0.26829 0.321593 -0.443573 -0.321061 -0.322144 -0.0466079 0.321593 0.30883 0.321593 0.30883 0.897928 0.704169 0.897928 0.704169 0.897899 0.704169 0.897899 0.704169 0.321593 0.308859 0.321593 0.308859 -0.321061 -0.0462526 -0.0466079 -0.0448096 0.30883 -0.054961 0.30883 -0.054961 0.704169 0.115201 0.704169 0.115201 0.704169 0.115201 0.704169 0.115201 0.308859 -0.0549903 0.308859 -0.0549903 -0.0462526 -0.0451649 -0.0448096 -0.316522 -0.054961 -0.630753 -0.054961 -0.630753 0.115201 -0.64406 0.115201 -0.64406 0.115201 -0.644031 0.115201 -0.644031 -0.0549903 -0.630753 -0.0549903 -0.630753 -0.0451649 -0.317605 -0.316522 -0.431899 -0.630753 -0.90804 -0.630753 -0.90804 -0.64406 -0.998903 -0.64406 -0.998903 -0.644031 -0.998547 -0.644031 -0.998547 -0.630753 -0.906956 -0.630753 -0.906956 -0.317605 -0.431899 
SCALARS pressure_error double 1
LOOKUP_TABLE default
0.443573 0.322144 0.318412 0.153936 0.318412 0.153936 0.0435713 -0.128507 0.0435713 -0.128507 0.0439266 -0.128478 0.0439266 -0.128478 0.319495 0.153936 0.319495 0.153936 0.443573 0.321061 0.322144 0.0466078 0.153936 -0.127194 0.153936 -0.127194 -0.128507 -0.410277 -0.128507 -0.410277 -0.128478 -0.410277 -0.128478 -0.410277 0.153936 -0.127223 0.153936 -0.127223 0.321061 0.0462525 0.0466078 0.0448096 -0.127194 -0.126675 -0.127194 -0.126675 -0.410277 -0.409094 -0.410277 -0.409094 -0.410277 -0.409094 -0.410277 -0.409094 -0.127223 -0.126645 -0.127223 -0.126645 0.0462525 0.0451648 0.0448096 0.316522 -0.126675 0.155225 -0.126675 0.155225 -0.409094 -0.125361 -0.409094 -0.125361 -0.409094 -0.12539 -0.409094 -0.12539 -0.126645 0.155225 -0.126645 0.155225 0.0451648 0.317605 0.316522 0.431899 0.155225 0.320254 0.155225 0.320254 -0.125361 0.047846 -0.125361 0.047846 -0.12539 0.0474908 -0.12539 0.0474908 0.155225 0.319171 0.155225 0.319171 0.317605 0.431899 
SCALARS temperature double 1
LOOKUP_TABLE default
0 0 0 0 0 0 0 0 0 0 0 0 0 0 0 0 0 0 0 0 0 0 0 0 0 0 0 0 0 0 0 0 0 0 0 0 0 0 0 0 0 0 0 0 0 0 0 0 0 0 0 0 0 0 0 0 0 0 0 0 0 0 0 0 0 0 0 0 0 0 0 0 0 0 0 0 0 0 0 0 0 0 0 0 0 0 0 0 0 0 0 0 0 0 0 0 0 0 0 0 
SCALARS temperature_error double 1
LOOKUP_TABLE default
0 0 0.587785 0.181636 0.587785 0.181636 0.951057 0.293893 0.951057 0.293893 0.951057 0.293893 0.951057 0.293893 0.587785 0.181636 0.587785 0.181636 1.22465e-16 3.78437e-17 0 0 0.181636 -0.475528 0.181636 -0.475528 0.293893 -0.769421 0.293893 -0.769421 0.293893 -0.769421 0.293893 -0.769421 0.181636 -0.475528 0.181636 -0.475528 3.78437e-17 -9.9076e-17 0 0 -0.475528 -0.475528 -0.475528 -0.475528 -0.769421 -0.769421 -0.769421 -0.769421 -0.769421 -0.769421 -0.769421 -0.769421 -0.475528 -0.475528 -0.475528 -0.475528 -9.9076e-17 -9.9076e-17 0 0 -0.475528 0.181636 -0.475528 0.181636 -0.769421 0.293893 -0.769421 0.293893 -0.769421 0.293893 -0.769421 0.293893 -0.475528 0.181636 -0.475528 0.181636 -9.9076e-17 3.78437e-17 0 0 0.181636 0.587785 0.181636 0.587785 0.293893 0.951057 0.293893 0.951057 0.293893 0.951057 0.293893 0.951057 0.181636 0.587785 0.181636 0.587785 3.78437e-17 1.22465e-16 
