# vtk DataFile Version 3.0
#This file was generated by the deal.II library on 2026/5/28 at 17:13:05
ASCII
DATASET UNSTRUCTURED_GRID

POINTS 100 double
0 0 0
0.2 0 0
0 0.2 0
0.2 0.2 0
0 0.2 0
0.2 0.2 0
0 0.4 0
0.2 0.4 0
0 0.4 0
0.2 0.4 0
0 0.6 0
0.2 0.6 0
0 0.6 0
0.2 0.6 0
0 0.8 0
0.2 0.8 0
0 0.8 0
0.2 0.8 0
0 1 0
0.2 1 0
0.2 0 0
0.4 0 0
0.2 0.2 0
0.4 0.2 0
0.2 0.2 0
0.4 0.2 0
0.2 0.4 0
0.4 0.4 0
0.2 0.4 0
0.4 0.4 0
0.2 0.6 0
0.4 0.6 0
0.2 0.6 0
0.4 0.6 0
0.2 0.8 0
0.4 0.8 0
0.2 0.8 0
0.4 0.8 0
0.2 1 0
0.4 1 0
0.4 0 0
0.6 0 0
0.4 0.2 0
0.6 0.2 0
0.4 0.2 0
0.6 0.2 0
0.4 0.4 0
0.6 0.4 0
0.4 0.4 0
0.6 0.4 0
0.4 0.6 0
0.6 0.6 0
0.4 0.6 0
0.6 0.6 0
0.4 0.8 0
0.6 0.8 0
0.4 0.8 0
0.6 0.8 0
0.4 1 0
0.6 1 0
0.6 0 0
0.8 0 0
0.6 0.2 0
0.8 0.2 0
0.6 0.2 0
0.8 0.2 0
0.6 0.4 0
0.8 0.4 0
0.6 0.4 0
0.8 0.4 0
0.6 0.6 0
0.8 0.6 0
0.6 0.6 0
0.8 0.6 0
0.6 0.8 0
0.8 0.8 0
0.6 0.8 0
0.8 0.8 0
0.6 1 0
0.8 1 0
0.8 0 0
1 0 0
0.8 0.2 0
1 0.2 0
0.8 0.2 0
1 0.2 0
0.8 0.4 0
1 0.4 0
0.8 0.4 0
1 0.4 0
0.8 0.6 0
1 0.6 0
0.8 0.6 0
1 0.6 0
0.8 0.8 0
1 0.8 0
0.8 0.8 0
1 0.8 0
0.8 1 0
1 1 0

CELLS 25 125
4	0	1	3	2
4	4	5	7	6
4	8	9	11	10
4	12	13	15	14
4	16	17	19	18
4	20	21	23	22
4	24	25	27	26
4	28	29	31	30
4	32	33	35	34
4	36	37	39	38
4	40	41	43	42
4	44	45	47	46
4	48	49	51	50
4	52	53	55	54
4	56	57	59	58
4	60	61	63	62
4	64	65	67	66
4	68	69	71	70
4	72	73	75	74
4	76	77	79	78
4	80	81	83	82
4	84	85	87	86
4	88	89	91	90
4	92	93	95	94
4	96	97	99	98

CELL_TYPES 25
 9 9 9 9 9 9 9 9 9 9 9 9 9 9 9 9 9 9 9 9 9 9 9 9 9
POINT_DATA 100
VECTORS velocity double
0 0 0
0.587785 0 0
0 -0.587785 0
0.475525 -0.475628 0
0 -0.587785 0
0.475525 -0.475628 0
0 -0.951057 0
0.181608 -0.769512 0
0 -0.951057 0
0.181608 -0.769512 0
0 -0.951057 0
-0.181681 -0.769418 0
0 -0.951057 0
-0.181681 -0.769418 0
0 -0.587785 0
-0.475576 -0.475473 0
0 -0.587785 0
-0.475576 -0.475473 0
0 -1.22465e-16 0
-0.587785 -9.9076e-17 0
0.587785 0 0
0.951057 0 0
0.475525 -0.475628 0
0.769486 -0.181733 0
0.475525 -0.475628 0
0.769486 -0.181733 0
0.181608 -0.769512 0
0.293943 -0.293954 0
0.181608 -0.769512 0
0.293943 -0.293954 0
-0.181681 -0.769418 0
-0.293878 -0.293867 0
-0.181681 -0.769418 0
-0.293878 -0.293867 0
-0.475576 -0.475473 0
-0.769445 -0.181557 0
-0.475576 -0.475473 0
-0.769445 -0.181557 0
-0.587785 -9.9076e-17 0
-0.951057 -3.78437e-17 0
0.951057 0 0
0.951057 0 0
0.769486 -0.181733 0
0.76956 0.181564 0
0.769486 -0.181733 0
0.76956 0.181564 0
0.293943 -0.293954 0
0.294024 0.293873 0
0.293943 -0.293954 0
0.294024 0.293873 0
-0.293878 -0.293867 0
-0.293797 0.293948 0
-0.293878 -0.293867 0
-0.293797 0.293948 0
-0.769445 -0.181557 0
-0.76937 0.181725 0
-0.769445 -0.181557 0
-0.76937 0.181725 0
-0.951057 -3.78437e-17 0
-0.951057 3.78437e-17 0
0.951057 0 0
0.587785 0 0
0.76956 0.181564 0
0.475636 0.475517 0
0.76956 0.181564 0
0.475636 0.475517 0
0.294024 0.293873 0
0.181777 0.769437 0
0.294024 0.293873 0
0.181777 0.769437 0
-0.293797 0.293948 0
-0.181513 0.769493 0
-0.293797 0.293948 0
-0.181513 0.769493 0
-0.76937 0.181725 0
-0.475465 0.475584 0
-0.76937 0.181725 0
-0.475465 0.475584 0
-0.951057 3.78437e-17 0
-0.587785 9.9076e-17 0
0.587785 0 0
1.22465e-16 0 0
0.475636 0.475517 0
9.9076e-17 0.587785 0
0.475636 0.475517 0
9.9076e-17 0.587785 0
0.181777 0.769437 0
3.78437e-17 0.951057 0
0.181777 0.769437 0
3.78437e-17 0.951057 0
-0.181513 0.769493 0
-3.78437e-17 0.951057 0
-0.181513 0.769493 0
-3.78437e-17 0.951057 0
-0.475465 0.475584 0
-9.9076e-17 0.587785 0
-0.475465 0.475584 0
-9.9076e-17 0.587785 0
-0.587785 9.9076e-17 0
-1.22465e-16 1.22465e-16 0
SCALARS pressure double 1
LOOKUP_TABLE default
-0.443573 -0.322144 0.269373 0.321593 0.269373 0.321593 0.907485 0.897928 0.907485 0.897928 0.90713 0.897899 0.90713 0.897899 0.26829 0.321593 0.26829 0.321593 -0.443573 -0.321061 -0.322144 -0.0466079 0.321593 0.30883 0.321593 0.30883 0.897928 0.704169 0.897928 0.704169 0.897899 0.704169 0.897899 0.704169 0.321593 0.308859 0.321593 0.308859 -0.321061 -0.0462526 -0.0466079 -0.0448096 0.30883 -0.054961 0.30883 -0.054961 0.704169 0.115201 0.704169 0.115201 0.704169 0.115201 0.704169 0.115201 0.308859 -0.0549903 0.308859 -0.0549903 -0.0462526 -0.0451649 -0.0448096 -0.316522 -0.054961 -0.630753 -0.054961 -0.630753 0.115201 -0.64406 0.115201 -0.64406 0.115201 -0.644031 0.115201 -0.644031 -0.0549903 -0.630753 -0.0549903 -0.630753 -0.0451649 -0.317605 -0.316522 -0.431899 -0.630753 -0.90804 -0.630753 -0.90804 -0.64406 -0.998903 -0.64406 -0.998903 -0.644031 -0.998547 -0.644031 -0.998547 -0.630753 -0.906956 -0.630753 -0.906956 -0.317605 -0.431899 
SCALARS temperature double 1
LOOKUP_TABLE default
0 0 0 0 0 0 0 0 0 0 0 0 0 0 0 0 0 0 0 0 0 0 0 0 0 0 0 0 0 0 0 0 0 0 0 0 0 0 0 0 0 0 0 0 0 0 0 0 0 0 0 0 0 0 0 0 0 0 0 0 0 0 0 0 0 0 0 0 0 0 0 0 0 0 0 0 0 0 0 0 0 0 0 0 0 0 0 0 0 0 0 0 0 0 0 0 0 0 0 0 
