# vtk DataFile Version 3.0
#This file was generated by the deal.II library on 2026/5/28 at 17:13:06
ASCII
DATASET UNSTRUCTURED_GRID

POINTS 100 double
0 0 0
0.2 0 0
0 0.2 0
0.2 0.2 0
0 0.2 0
0.2 0.2 0
0 0.4 0
0.2 0.4 0
0 0.4 0
0.2 0.4 0
0 0.6 0
0.2 0.6 0
0 0.6 0
0.2 0.6 0
0 0.8 0
0.2 0.8 0
0 0.8 0
0.2 0.8 0
0 1 0
0.2 1 0
0.2 0 0
0.4 0 0
0.2 0.2 0
0.4 0.2 0
0.2 0.2 0
0.4 0.2 0
0.2 0.4 0
0.4 0.4 0
0.2 0.4 0
0.4 0.4 0
0.2 0.6 0
0.4 0.6 0
0.2 0.6 0
0.4 0.6 0
0.2 0.8 0
0.4 0.8 0
0.2 0.8 0
0.4 0.8 0
0.2 1 0
0.4 1 0
0.4 0 0
0.6 0 0
0.4 0.2 0
0.6 0.2 0
0.4 0.2 0
0.6 0.2 0
0.4 0.4 0
0.6 0.4 0
0.4 0.4 0
0.6 0.4 0
0.4 0.6 0
0.6 0.6 0
0.4 0.6 0
0.6 0.6 0
0.4 0.8 0
0.6 0.8 0
0.4 0.8 0
0.6 0.8 0
0.4 1 0
0.6 1 0
0.6 0 0
0.8 0 0
0.6 0.2 0
0.8 0.2 0
0.6 0.2 0
0.8 0.2 0
0.6 0.4 0
0.8 0.4 0
0.6 0.4 0
0.8 0.4 0
0.6 0.6 0
0.8 0.6 0
0.6 0.6 0
0.8 0.6 0
0.6 0.8 0
0.8 0.8 0
0.6 0.8 0
0.8 0.8 0
0.6 1 0
0.8 1 0
0.8 0 0
1 0 0
0.8 0.2 0
1 0.2 0
0.8 0.2 0
1 0.2 0
0.8 0.4 0
1 0.4 0
0.8 0.4 0
1 0.4 0
0.8 0.6 0
1 0.6 0
0.8 0.6 0
1 0.6 0
0.8 0.8 0
1 0.8 0
0.8 0.8 0
1 0.8 0
0.8 1 0
1 1 0

CELLS 25 125
4	0	1	3	2
4	4	5	7	6
4	8	9	11	10
4	12	13	15	14
4	16	17	19	18
4	20	21	23	22
4	24	25	27	26
4	28	29	31	30
4	32	33	35	34
4	36	37	39	38
4	40	41	43	42
4	44	45	47	46
4	48	49	51	50
4	52	53	55	54
4	56	57	59	58
4	60	61	63	62
4	64	65	67	66
4	68	69	71	70
4	72	73	75	74
4	76	77	79	78
4	80	81	83	82
4	84	85	87	86
4	88	89	91	90
4	92	93	95	94
4	96	97	99	98

CELL_TYPES 25
 9 9 9 9 9 9 9 9 9 9 9 9 9 9 9 9 9 9 9 9 9 9 9 9 9
POINT_DATA 100
VECTORS velocity double
0 0 0
0.587785 0 0
0 -0.587785 0
0.475602 -0.475963 0
0 -0.587785 0
0.475602 -0.475963 0
0 -0.951057 0
0.181504 -0.769567 0
0 -0.951057 0
0.181504 -0.769567 0
0 -0.951057 0
-0.181853 -0.769319 0
0 -0.951057 0
-0.181853 -0.769319 0
0 -0.587785 0
-0.475925 -0.475536 0
0 -0.587785 0
-0.475925 -0.475536 0
0 -1.22465e-16 0
-0.587785 -9.9076e-17 0
0.587785 0 0
0.951057 0 0
0.475602 -0.475963 0
0.769405 -0.18197 0
0.475602 -0.475963 0
0.769405 -0.18197 0
0.181504 -0.769567 0
0.293799 -0.2942 0
0.181504 -0.769567 0
0.293799 -0.2942 0
-0.181853 -0.769319 0
-0.29412 -0.29375 0
-0.181853 -0.769319 0
-0.29412 -0.29375 0
-0.475925 -0.475536 0
-0.769522 -0.181479 0
-0.475925 -0.475536 0
-0.769522 -0.181479 0
-0.587785 -9.9076e-17 0
-0.951057 -3.78437e-17 0
0.951057 0 0
0.951057 0 0
0.769405 -0.18197 0
0.769537 0.181393 0
0.769405 -0.18197 0
0.769537 0.181393 0
0.293799 -0.2942 0
0.294201 0.293665 0
0.293799 -0.2942 0
0.294201 0.293665 0
-0.29412 -0.29375 0
-0.293617 0.29412 0
-0.29412 -0.29375 0
-0.293617 0.29412 0
-0.769522 -0.181479 0
-0.76925 0.181795 0
-0.769522 -0.181479 0
-0.76925 0.181795 0
-0.951057 -3.78437e-17 0
-0.951057 3.78437e-17 0
0.951057 0 0
0.587785 0 0
0.769537 0.181393 0
0.475767 0.47553 0
0.769537 0.181393 0
0.475767 0.47553 0
0.294201 0.293665 0
0.181912 0.769336 0
0.294201 0.293665 0
0.181912 0.769336 0
-0.293617 0.29412 0
-0.181368 0.769492 0
-0.293617 0.29412 0
-0.181368 0.769492 0
-0.76925 0.181795 0
-0.475464 0.47573 0
-0.76925 0.181795 0
-0.475464 0.47573 0
-0.951057 3.78437e-17 0
-0.587785 9.9076e-17 0
0.587785 0 0
1.22465e-16 0 0
0.475767 0.47553 0
9.9076e-17 0.587785 0
0.475767 0.47553 0
9.9076e-17 0.587785 0
0.181912 0.769336 0
3.78437e-17 0.951057 0
0.181912 0.769336 0
3.78437e-17 0.951057 0
-0.181368 0.769492 0
-3.78437e-17 0.951057 0
-0.181368 0.769492 0
-3.78437e-17 0.951057 0
-0.475464 0.47573 0
-9.9076e-17 0.587785 0
-0.475464 0.47573 0
-9.9076e-17 0.587785 0
-0.587785 9.9076e-17 0
-1.22465e-16 1.22465e-16 0
SCALARS pressure double 1
LOOKUP_TABLE default
-0.00546133 -0.00267651 0.588152 0.475886 0.588152 0.475886 0.953019 0.770886 0.953019 0.770886 0.953011 0.770987 0.953011 0.770987 0.588174 0.476065 0.588174 0.476065 -0.00499902 -0.00244933 -0.00267651 -0.000920857 0.475886 0.181727 0.475886 0.181727 0.770886 0.294435 0.770886 0.294435 0.770987 0.294421 0.770987 0.294421 0.476065 0.181719 0.476065 0.181719 -0.00244933 -0.000930154 -0.000920857 0.000895986 0.181727 -0.181961 0.181727 -0.181961 0.294435 -0.294559 0.294435 -0.294559 0.294421 -0.294574 0.294421 -0.294574 0.181719 -0.181925 0.181719 -0.181925 -0.000930154 0.000673309 0.000895986 0.00184388 -0.181961 -0.476453 -0.181961 -0.476453 -0.294559 -0.771185 -0.294559 -0.771185 -0.294574 -0.771128 -0.294574 -0.771128 -0.181925 -0.476275 -0.181925 -0.476275 0.000673309 0.00167305 0.00184388 0.000679403 -0.476453 -0.589177 -0.476453 -0.589177 -0.771185 -0.953259 -0.771185 -0.953259 -0.771128 -0.953053 -0.771128 -0.953053 -0.476275 -0.588757 -0.476275 -0.588757 0.00167305 0.00114176 
SCALARS temperature double 1
LOOKUP_TABLE default
0 0 0 0 0 0 0 0 0 0 0 0 0 0 0 0 0 0 0 0 0 0 0 0 0 0 0 0 0 0 0 0 0 0 0 0 0 0 0 0 0 0 0 0 0 0 0 0 0 0 0 0 0 0 0 0 0 0 0 0 0 0 0 0 0 0 0 0 0 0 0 0 0 0 0 0 0 0 0 0 0 0 0 0 0 0 0 0 0 0 0 0 0 0 0 0 0 0 0 0 
