# vtk DataFile Version 3.0
#This file was generated by the deal.II library on 2026/5/29 at 10:56:30
ASCII
DATASET UNSTRUCTURED_GRID

POINTS 100 double
0 0 0
0.2 0 0
0 0.2 0
0.2 0.2 0
0 0.2 0
0.2 0.2 0
0 0.4 0
0.2 0.4 0
0 0.4 0
0.2 0.4 0
0 0.6 0
0.2 0.6 0
0 0.6 0
0.2 0.6 0
0 0.8 0
0.2 0.8 0
0 0.8 0
0.2 0.8 0
0 1 0
0.2 1 0
0.2 0 0
0.4 0 0
0.2 0.2 0
0.4 0.2 0
0.2 0.2 0
0.4 0.2 0
0.2 0.4 0
0.4 0.4 0
0.2 0.4 0
0.4 0.4 0
0.2 0.6 0
0.4 0.6 0
0.2 0.6 0
0.4 0.6 0
0.2 0.8 0
0.4 0.8 0
0.2 0.8 0
0.4 0.8 0
0.2 1 0
0.4 1 0
0.4 0 0
0.6 0 0
0.4 0.2 0
0.6 0.2 0
0.4 0.2 0
0.6 0.2 0
0.4 0.4 0
0.6 0.4 0
0.4 0.4 0
0.6 0.4 0
0.4 0.6 0
0.6 0.6 0
0.4 0.6 0
0.6 0.6 0
0.4 0.8 0
0.6 0.8 0
0.4 0.8 0
0.6 0.8 0
0.4 1 0
0.6 1 0
0.6 0 0
0.8 0 0
0.6 0.2 0
0.8 0.2 0
0.6 0.2 0
0.8 0.2 0
0.6 0.4 0
0.8 0.4 0
0.6 0.4 0
0.8 0.4 0
0.6 0.6 0
0.8 0.6 0
0.6 0.6 0
0.8 0.6 0
0.6 0.8 0
0.8 0.8 0
0.6 0.8 0
0.8 0.8 0
0.6 1 0
0.8 1 0
0.8 0 0
1 0 0
0.8 0.2 0
1 0.2 0
0.8 0.2 0
1 0.2 0
0.8 0.4 0
1 0.4 0
0.8 0.4 0
1 0.4 0
0.8 0.6 0
1 0.6 0
0.8 0.6 0
1 0.6 0
0.8 0.8 0
1 0.8 0
0.8 0.8 0
1 0.8 0
0.8 1 0
1 1 0

CELLS 25 125
4	0	1	3	2
4	4	5	7	6
4	8	9	11	10
4	12	13	15	14
4	16	17	19	18
4	20	21	23	22
4	24	25	27	26
4	28	29	31	30
4	32	33	35	34
4	36	37	39	38
4	40	41	43	42
4	44	45	47	46
4	48	49	51	50
4	52	53	55	54
4	56	57	59	58
4	60	61	63	62
4	64	65	67	66
4	68	69	71	70
4	72	73	75	74
4	76	77	79	78
4	80	81	83	82
4	84	85	87	86
4	88	89	91	90
4	92	93	95	94
4	96	97	99	98

CELL_TYPES 25
 9 9 9 9 9 9 9 9 9 9 9 9 9 9 9 9 9 9 9 9 9 9 9 9 9
POINT_DATA 100
VECTORS velocity double
0 0 0
0.587785 0 0
0 -0.587785 0
0.475602 -0.475963 0
0 -0.587785 0
0.475602 -0.475963 0
0 -0.951057 0
0.181504 -0.769567 0
0 -0.951057 0
0.181504 -0.769567 0
0 -0.951057 0
-0.181853 -0.769319 0
0 -0.951057 0
-0.181853 -0.769319 0
0 -0.587785 0
-0.475925 -0.475536 0
0 -0.587785 0
-0.475925 -0.475536 0
0 -1.22465e-16 0
-0.587785 -9.9076e-17 0
0.587785 0 0
0.951057 0 0
0.475602 -0.475963 0
0.769405 -0.18197 0
0.475602 -0.475963 0
0.769405 -0.18197 0
0.181504 -0.769567 0
0.293799 -0.2942 0
0.181504 -0.769567 0
0.293799 -0.2942 0
-0.181853 -0.769319 0
-0.29412 -0.29375 0
-0.181853 -0.769319 0
-0.29412 -0.29375 0
-0.475925 -0.475536 0
-0.769522 -0.181479 0
-0.475925 -0.475536 0
-0.769522 -0.181479 0
-0.587785 -9.9076e-17 0
-0.951057 -3.78437e-17 0
0.951057 0 0
0.951057 0 0
0.769405 -0.18197 0
0.769537 0.181393 0
0.769405 -0.18197 0
0.769537 0.181393 0
0.293799 -0.2942 0
0.294201 0.293665 0
0.293799 -0.2942 0
0.294201 0.293665 0
-0.29412 -0.29375 0
-0.293617 0.29412 0
-0.29412 -0.29375 0
-0.293617 0.29412 0
-0.769522 -0.181479 0
-0.76925 0.181795 0
-0.769522 -0.181479 0
-0.76925 0.181795 0
-0.951057 -3.78437e-17 0
-0.951057 3.78437e-17 0
0.951057 0 0
0.587785 0 0
0.769537 0.181393 0
0.475767 0.47553 0
0.769537 0.181393 0
0.475767 0.47553 0
0.294201 0.293665 0
0.181912 0.769336 0
0.294201 0.293665 0
0.181912 0.769336 0
-0.293617 0.29412 0
-0.181368 0.769492 0
-0.293617 0.29412 0
-0.181368 0.769492 0
-0.76925 0.181795 0
-0.475464 0.47573 0
-0.76925 0.181795 0
-0.475464 0.47573 0
-0.951057 3.78437e-17 0
-0.587785 9.9076e-17 0
0.587785 0 0
1.22465e-16 0 0
0.475767 0.47553 0
9.9076e-17 0.587785 0
0.475767 0.47553 0
9.9076e-17 0.587785 0
0.181912 0.769336 0
3.78437e-17 0.951057 0
0.181912 0.769336 0
3.78437e-17 0.951057 0
-0.181368 0.769492 0
-3.78437e-17 0.951057 0
-0.181368 0.769492 0
-3.78437e-17 0.951057 0
-0.475464 0.47573 0
-9.9076e-17 0.587785 0
-0.475464 0.47573 0
-9.9076e-17 0.587785 0
-0.587785 9.9076e-17 0
-1.22465e-16 1.22465e-16 0
VECTORS velocity_error double
0 0 0
0 0 0
0 0 0
-7.42115e-05 0.000434701 0
0 0 0
-7.42115e-05 0.000434701 0
0 0 0
0.00013125 0.000146251 0
0 0 0
0.00013125 0.000146251 0
0 0 0
0.000217263 -0.000102033 0
0 0 0
0.000217263 -0.000102033 0
0 0 0
0.000396936 8.12147e-06 0
0 0 0
0.000396936 8.12147e-06 0
0 0 0
0 0 0
0 0 0
0 0 0
-7.42115e-05 0.000434701 0
1.6035e-05 0.000334414 0
-7.42115e-05 0.000434701 0
1.6035e-05 0.000334414 0
0.00013125 0.000146251 0
9.41038e-05 0.00030774 0
0.00013125 0.000146251 0
9.41038e-05 0.00030774 0
0.000217263 -0.000102033 0
0.000227282 -0.000142227 0
0.000217263 -0.000102033 0
0.000227282 -0.000142227 0
0.000396936 8.12147e-06 0
0.000101471 -0.000156213 0
0.000396936 8.12147e-06 0
0.000101471 -0.000156213 0
0 0 0
0 0 0
0 0 0
0 0 0
1.6035e-05 0.000334414 0
-0.000116189 0.000242419 0
1.6035e-05 0.000334414 0
-0.000116189 0.000242419 0
9.41038e-05 0.00030774 0
-0.000308197 0.000227398 0
9.41038e-05 0.00030774 0
-0.000308197 0.000227398 0
0.000227282 -0.000142227 0
-0.000275516 -0.000227729 0
0.000227282 -0.000142227 0
-0.000275516 -0.000227729 0
0.000101471 -0.000156213 0
-0.000171168 -0.000158993 0
0.000101471 -0.000156213 0
-0.000171168 -0.000158993 0
0 0 0
0 0 0
0 0 0
0 0 0
-0.000116189 0.000242419 0
-0.000239113 -1.69186e-06 0
-0.000116189 0.000242419 0
-0.000239113 -1.69186e-06 0
-0.000308197 0.000227398 0
-0.000276156 8.51772e-05 0
-0.000308197 0.000227398 0
-0.000276156 8.51772e-05 0
-0.000275516 -0.000227729 0
-0.000267386 -7.14034e-05 0
-0.000275516 -0.000227729 0
-0.000267386 -7.14034e-05 0
-0.000171168 -0.000158993 0
-6.43798e-05 -0.000201347 0
-0.000171168 -0.000158993 0
-6.43798e-05 -0.000201347 0
0 0 0
0 0 0
0 0 0
0 0 0
-0.000239113 -1.69186e-06 0
0 0 0
-0.000239113 -1.69186e-06 0
0 0 0
-0.000276156 8.51772e-05 0
0 0 0
-0.000276156 8.51772e-05 0
0 0 0
-0.000267386 -7.14034e-05 0
0 0 0
-0.000267386 -7.14034e-05 0
0 0 0
-6.43798e-05 -0.000201347 0
0 0 0
-6.43798e-05 -0.000201347 0
0 0 0
0 0 0
0 0 0
SCALARS pressure double 1
LOOKUP_TABLE default
-0.00546133 -0.00267651 0.588152 0.475886 0.588152 0.475886 0.953019 0.770886 0.953019 0.770886 0.953011 0.770987 0.953011 0.770987 0.588174 0.476065 0.588174 0.476065 -0.00499902 -0.00244933 -0.00267651 -0.000920857 0.475886 0.181727 0.475886 0.181727 0.770886 0.294435 0.770886 0.294435 0.770987 0.294421 0.770987 0.294421 0.476065 0.181719 0.476065 0.181719 -0.00244933 -0.000930154 -0.000920857 0.000895986 0.181727 -0.181961 0.181727 -0.181961 0.294435 -0.294559 0.294435 -0.294559 0.294421 -0.294574 0.294421 -0.294574 0.181719 -0.181925 0.181719 -0.181925 -0.000930154 0.000673309 0.000895986 0.00184388 -0.181961 -0.476453 -0.181961 -0.476453 -0.294559 -0.771185 -0.294559 -0.771185 -0.294574 -0.771128 -0.294574 -0.771128 -0.181925 -0.476275 -0.181925 -0.476275 0.000673309 0.00167305 0.00184388 0.000679403 -0.476453 -0.589177 -0.476453 -0.589177 -0.771185 -0.953259 -0.771185 -0.953259 -0.771128 -0.953053 -0.771128 -0.953053 -0.476275 -0.588757 -0.476275 -0.588757 0.00167305 0.00114176 
SCALARS pressure_error double 1
LOOKUP_TABLE default
0.00546131 0.0026765 -0.00036682 -0.00035759 -0.00036682 -0.00035759 -0.00196254 -0.00146497 -0.00196254 -0.00146497 -0.00195464 -0.0015658 -0.00195464 -0.0015658 -0.000388422 -0.000536393 -0.000388422 -0.000536393 0.004999 0.00244932 0.0026765 0.000920843 -0.00035759 -9.17044e-05 -0.00035759 -9.17044e-05 -0.00146497 -0.000542657 -0.00146497 -0.000542657 -0.0015658 -0.000527943 -0.0015658 -0.000527943 -0.000536393 -8.34379e-05 -0.000536393 -8.34379e-05 0.00244932 0.000930139 0.000920843 -0.000896001 -9.17044e-05 0.000325281 -9.17044e-05 0.000325281 -0.000542657 0.000666821 -0.000542657 0.000666821 -0.000527943 0.000681544 -0.000527943 0.000681544 -8.34379e-05 0.000289642 -8.34379e-05 0.000289642 0.000930139 -0.000673323 -0.000896001 -0.00184389 0.000325281 0.000925122 0.000325281 0.000925122 0.000666821 0.00176373 0.000666821 0.00176373 0.000681544 0.00170686 0.000681544 0.00170686 0.000289642 0.000746348 0.000289642 0.000746348 -0.000673323 -0.00167307 -0.00184389 -0.000679417 0.000925122 0.00139189 0.000925122 0.00139189 0.00176373 0.00220217 0.00176373 0.00220217 0.00170686 0.0019967 0.00170686 0.0019967 0.000746348 0.000972208 0.000746348 0.000972208 -0.00167307 -0.00114177 
SCALARS temperature double 1
LOOKUP_TABLE default
0 0 0 0 0 0 0 0 0 0 0 0 0 0 0 0 0 0 0 0 0 0 0 0 0 0 0 0 0 0 0 0 0 0 0 0 0 0 0 0 0 0 0 0 0 0 0 0 0 0 0 0 0 0 0 0 0 0 0 0 0 0 0 0 0 0 0 0 0 0 0 0 0 0 0 0 0 0 0 0 0 0 0 0 0 0 0 0 0 0 0 0 0 0 0 0 0 0 0 0 
SCALARS temperature_error double 1
LOOKUP_TABLE default
0 0 0.587785 0.181636 0.587785 0.181636 0.951057 0.293893 0.951057 0.293893 0.951057 0.293893 0.951057 0.293893 0.587785 0.181636 0.587785 0.181636 1.22465e-16 3.78437e-17 0 0 0.181636 -0.475528 0.181636 -0.475528 0.293893 -0.769421 0.293893 -0.769421 0.293893 -0.769421 0.293893 -0.769421 0.181636 -0.475528 0.181636 -0.475528 3.78437e-17 -9.9076e-17 0 0 -0.475528 -0.475528 -0.475528 -0.475528 -0.769421 -0.769421 -0.769421 -0.769421 -0.769421 -0.769421 -0.769421 -0.769421 -0.475528 -0.475528 -0.475528 -0.475528 -9.9076e-17 -9.9076e-17 0 0 -0.475528 0.181636 -0.475528 0.181636 -0.769421 0.293893 -0.769421 0.293893 -0.769421 0.293893 -0.769421 0.293893 -0.475528 0.181636 -0.475528 0.181636 -9.9076e-17 3.78437e-17 0 0 0.181636 0.587785 0.181636 0.587785 0.293893 0.951057 0.293893 0.951057 0.293893 0.951057 0.293893 0.951057 0.181636 0.587785 0.181636 0.587785 3.78437e-17 1.22465e-16 
