# vtk DataFile Version 3.0
#This file was generated by the deal.II library on 2026/5/29 at 10:58:40
ASCII
DATASET UNSTRUCTURED_GRID

POINTS 6400 double
0 0 0
0.025 0 0
0 0.025 0
0.025 0.025 0
0.025 0 0
0.05 0 0
0.025 0.025 0
0.05 0.025 0
0 0.025 0
0.025 0.025 0
0 0.05 0
0.025 0.05 0
0.025 0.025 0
0.05 0.025 0
0.025 0.05 0
0.05 0.05 0
0.05 0 0
0.075 0 0
0.05 0.025 0
0.075 0.025 0
0.075 0 0
0.1 0 0
0.075 0.025 0
0.1 0.025 0
0.05 0.025 0
0.075 0.025 0
0.05 0.05 0
0.075 0.05 0
0.075 0.025 0
0.1 0.025 0
0.075 0.05 0
0.1 0.05 0
0 0.05 0
0.025 0.05 0
0 0.075 0
0.025 0.075 0
0.025 0.05 0
0.05 0.05 0
0.025 0.075 0
0.05 0.075 0
0 0.075 0
0.025 0.075 0
0 0.1 0
0.025 0.1 0
0.025 0.075 0
0.05 0.075 0
0.025 0.1 0
0.05 0.1 0
0.05 0.05 0
0.075 0.05 0
0.05 0.075 0
0.075 0.075 0
0.075 0.05 0
0.1 0.05 0
0.075 0.075 0
0.1 0.075 0
0.05 0.075 0
0.075 0.075 0
0.05 0.1 0
0.075 0.1 0
0.075 0.075 0
0.1 0.075 0
0.075 0.1 0
0.1 0.1 0
0.1 0 0
0.125 0 0
0.1 0.025 0
0.125 0.025 0
0.125 0 0
0.15 0 0
0.125 0.025 0
0.15 0.025 0
0.1 0.025 0
0.125 0.025 0
0.1 0.05 0
0.125 0.05 0
0.125 0.025 0
0.15 0.025 0
0.125 0.05 0
0.15 0.05 0
0.15 0 0
0.175 0 0
0.15 0.025 0
0.175 0.025 0
0.175 0 0
0.2 0 0
0.175 0.025 0
0.2 0.025 0
0.15 0.025 0
0.175 0.025 0
0.15 0.05 0
0.175 0.05 0
0.175 0.025 0
0.2 0.025 0
0.175 0.05 0
0.2 0.05 0
0.1 0.05 0
0.125 0.05 0
0.1 0.075 0
0.125 0.075 0
0.125 0.05 0
0.15 0.05 0
0.125 0.075 0
0.15 0.075 0
0.1 0.075 0
0.125 0.075 0
0.1 0.1 0
0.125 0.1 0
0.125 0.075 0
0.15 0.075 0
0.125 0.1 0
0.15 0.1 0
0.15 0.05 0
0.175 0.05 0
0.15 0.075 0
0.175 0.075 0
0.175 0.05 0
0.2 0.05 0
0.175 0.075 0
0.2 0.075 0
0.15 0.075 0
0.175 0.075 0
0.15 0.1 0
0.175 0.1 0
0.175 0.075 0
0.2 0.075 0
0.175 0.1 0
0.2 0.1 0
0 0.1 0
0.025 0.1 0
0 0.125 0
0.025 0.125 0
0.025 0.1 0
0.05 0.1 0
0.025 0.125 0
0.05 0.125 0
0 0.125 0
0.025 0.125 0
0 0.15 0
0.025 0.15 0
0.025 0.125 0
0.05 0.125 0
0.025 0.15 0
0.05 0.15 0
0.05 0.1 0
0.075 0.1 0
0.05 0.125 0
0.075 0.125 0
0.075 0.1 0
0.1 0.1 0
0.075 0.125 0
0.1 0.125 0
0.05 0.125 0
0.075 0.125 0
0.05 0.15 0
0.075 0.15 0
0.075 0.125 0
0.1 0.125 0
0.075 0.15 0
0.1 0.15 0
0 0.15 0
0.025 0.15 0
0 0.175 0
0.025 0.175 0
0.025 0.15 0
0.05 0.15 0
0.025 0.175 0
0.05 0.175 0
0 0.175 0
0.025 0.175 0
0 0.2 0
0.025 0.2 0
0.025 0.175 0
0.05 0.175 0
0.025 0.2 0
0.05 0.2 0
0.05 0.15 0
0.075 0.15 0
0.05 0.175 0
0.075 0.175 0
0.075 0.15 0
0.1 0.15 0
0.075 0.175 0
0.1 0.175 0
0.05 0.175 0
0.075 0.175 0
0.05 0.2 0
0.075 0.2 0
0.075 0.175 0
0.1 0.175 0
0.075 0.2 0
0.1 0.2 0
0.1 0.1 0
0.125 0.1 0
0.1 0.125 0
0.125 0.125 0
0.125 0.1 0
0.15 0.1 0
0.125 0.125 0
0.15 0.125 0
0.1 0.125 0
0.125 0.125 0
0.1 0.15 0
0.125 0.15 0
0.125 0.125 0
0.15 0.125 0
0.125 0.15 0
0.15 0.15 0
0.15 0.1 0
0.175 0.1 0
0.15 0.125 0
0.175 0.125 0
0.175 0.1 0
0.2 0.1 0
0.175 0.125 0
0.2 0.125 0
0.15 0.125 0
0.175 0.125 0
0.15 0.15 0
0.175 0.15 0
0.175 0.125 0
0.2 0.125 0
0.175 0.15 0
0.2 0.15 0
0.1 0.15 0
0.125 0.15 0
0.1 0.175 0
0.125 0.175 0
0.125 0.15 0
0.15 0.15 0
0.125 0.175 0
0.15 0.175 0
0.1 0.175 0
0.125 0.175 0
0.1 0.2 0
0.125 0.2 0
0.125 0.175 0
0.15 0.175 0
0.125 0.2 0
0.15 0.2 0
0.15 0.15 0
0.175 0.15 0
0.15 0.175 0
0.175 0.175 0
0.175 0.15 0
0.2 0.15 0
0.175 0.175 0
0.2 0.175 0
0.15 0.175 0
0.175 0.175 0
0.15 0.2 0
0.175 0.2 0
0.175 0.175 0
0.2 0.175 0
0.175 0.2 0
0.2 0.2 0
0 0.2 0
0.025 0.2 0
0 0.225 0
0.025 0.225 0
0.025 0.2 0
0.05 0.2 0
0.025 0.225 0
0.05 0.225 0
0 0.225 0
0.025 0.225 0
0 0.25 0
0.025 0.25 0
0.025 0.225 0
0.05 0.225 0
0.025 0.25 0
0.05 0.25 0
0.05 0.2 0
0.075 0.2 0
0.05 0.225 0
0.075 0.225 0
0.075 0.2 0
0.1 0.2 0
0.075 0.225 0
0.1 0.225 0
0.05 0.225 0
0.075 0.225 0
0.05 0.25 0
0.075 0.25 0
0.075 0.225 0
0.1 0.225 0
0.075 0.25 0
0.1 0.25 0
0 0.25 0
0.025 0.25 0
0 0.275 0
0.025 0.275 0
0.025 0.25 0
0.05 0.25 0
0.025 0.275 0
0.05 0.275 0
0 0.275 0
0.025 0.275 0
0 0.3 0
0.025 0.3 0
0.025 0.275 0
0.05 0.275 0
0.025 0.3 0
0.05 0.3 0
0.05 0.25 0
0.075 0.25 0
0.05 0.275 0
0.075 0.275 0
0.075 0.25 0
0.1 0.25 0
0.075 0.275 0
0.1 0.275 0
0.05 0.275 0
0.075 0.275 0
0.05 0.3 0
0.075 0.3 0
0.075 0.275 0
0.1 0.275 0
0.075 0.3 0
0.1 0.3 0
0.1 0.2 0
0.125 0.2 0
0.1 0.225 0
0.125 0.225 0
0.125 0.2 0
0.15 0.2 0
0.125 0.225 0
0.15 0.225 0
0.1 0.225 0
0.125 0.225 0
0.1 0.25 0
0.125 0.25 0
0.125 0.225 0
0.15 0.225 0
0.125 0.25 0
0.15 0.25 0
0.15 0.2 0
0.175 0.2 0
0.15 0.225 0
0.175 0.225 0
0.175 0.2 0
0.2 0.2 0
0.175 0.225 0
0.2 0.225 0
0.15 0.225 0
0.175 0.225 0
0.15 0.25 0
0.175 0.25 0
0.175 0.225 0
0.2 0.225 0
0.175 0.25 0
0.2 0.25 0
0.1 0.25 0
0.125 0.25 0
0.1 0.275 0
0.125 0.275 0
0.125 0.25 0
0.15 0.25 0
0.125 0.275 0
0.15 0.275 0
0.1 0.275 0
0.125 0.275 0
0.1 0.3 0
0.125 0.3 0
0.125 0.275 0
0.15 0.275 0
0.125 0.3 0
0.15 0.3 0
0.15 0.25 0
0.175 0.25 0
0.15 0.275 0
0.175 0.275 0
0.175 0.25 0
0.2 0.25 0
0.175 0.275 0
0.2 0.275 0
0.15 0.275 0
0.175 0.275 0
0.15 0.3 0
0.175 0.3 0
0.175 0.275 0
0.2 0.275 0
0.175 0.3 0
0.2 0.3 0
0 0.3 0
0.025 0.3 0
0 0.325 0
0.025 0.325 0
0.025 0.3 0
0.05 0.3 0
0.025 0.325 0
0.05 0.325 0
0 0.325 0
0.025 0.325 0
0 0.35 0
0.025 0.35 0
0.025 0.325 0
0.05 0.325 0
0.025 0.35 0
0.05 0.35 0
0.05 0.3 0
0.075 0.3 0
0.05 0.325 0
0.075 0.325 0
0.075 0.3 0
0.1 0.3 0
0.075 0.325 0
0.1 0.325 0
0.05 0.325 0
0.075 0.325 0
0.05 0.35 0
0.075 0.35 0
0.075 0.325 0
0.1 0.325 0
0.075 0.35 0
0.1 0.35 0
0 0.35 0
0.025 0.35 0
0 0.375 0
0.025 0.375 0
0.025 0.35 0
0.05 0.35 0
0.025 0.375 0
0.05 0.375 0
0 0.375 0
0.025 0.375 0
0 0.4 0
0.025 0.4 0
0.025 0.375 0
0.05 0.375 0
0.025 0.4 0
0.05 0.4 0
0.05 0.35 0
0.075 0.35 0
0.05 0.375 0
0.075 0.375 0
0.075 0.35 0
0.1 0.35 0
0.075 0.375 0
0.1 0.375 0
0.05 0.375 0
0.075 0.375 0
0.05 0.4 0
0.075 0.4 0
0.075 0.375 0
0.1 0.375 0
0.075 0.4 0
0.1 0.4 0
0.1 0.3 0
0.125 0.3 0
0.1 0.325 0
0.125 0.325 0
0.125 0.3 0
0.15 0.3 0
0.125 0.325 0
0.15 0.325 0
0.1 0.325 0
0.125 0.325 0
0.1 0.35 0
0.125 0.35 0
0.125 0.325 0
0.15 0.325 0
0.125 0.35 0
0.15 0.35 0
0.15 0.3 0
0.175 0.3 0
0.15 0.325 0
0.175 0.325 0
0.175 0.3 0
0.2 0.3 0
0.175 0.325 0
0.2 0.325 0
0.15 0.325 0
0.175 0.325 0
0.15 0.35 0
0.175 0.35 0
0.175 0.325 0
0.2 0.325 0
0.175 0.35 0
0.2 0.35 0
0.1 0.35 0
0.125 0.35 0
0.1 0.375 0
0.125 0.375 0
0.125 0.35 0
0.15 0.35 0
0.125 0.375 0
0.15 0.375 0
0.1 0.375 0
0.125 0.375 0
0.1 0.4 0
0.125 0.4 0
0.125 0.375 0
0.15 0.375 0
0.125 0.4 0
0.15 0.4 0
0.15 0.35 0
0.175 0.35 0
0.15 0.375 0
0.175 0.375 0
0.175 0.35 0
0.2 0.35 0
0.175 0.375 0
0.2 0.375 0
0.15 0.375 0
0.175 0.375 0
0.15 0.4 0
0.175 0.4 0
0.175 0.375 0
0.2 0.375 0
0.175 0.4 0
0.2 0.4 0
0 0.4 0
0.025 0.4 0
0 0.425 0
0.025 0.425 0
0.025 0.4 0
0.05 0.4 0
0.025 0.425 0
0.05 0.425 0
0 0.425 0
0.025 0.425 0
0 0.45 0
0.025 0.45 0
0.025 0.425 0
0.05 0.425 0
0.025 0.45 0
0.05 0.45 0
0.05 0.4 0
0.075 0.4 0
0.05 0.425 0
0.075 0.425 0
0.075 0.4 0
0.1 0.4 0
0.075 0.425 0
0.1 0.425 0
0.05 0.425 0
0.075 0.425 0
0.05 0.45 0
0.075 0.45 0
0.075 0.425 0
0.1 0.425 0
0.075 0.45 0
0.1 0.45 0
0 0.45 0
0.025 0.45 0
0 0.475 0
0.025 0.475 0
0.025 0.45 0
0.05 0.45 0
0.025 0.475 0
0.05 0.475 0
0 0.475 0
0.025 0.475 0
0 0.5 0
0.025 0.5 0
0.025 0.475 0
0.05 0.475 0
0.025 0.5 0
0.05 0.5 0
0.05 0.45 0
0.075 0.45 0
0.05 0.475 0
0.075 0.475 0
0.075 0.45 0
0.1 0.45 0
0.075 0.475 0
0.1 0.475 0
0.05 0.475 0
0.075 0.475 0
0.05 0.5 0
0.075 0.5 0
0.075 0.475 0
0.1 0.475 0
0.075 0.5 0
0.1 0.5 0
0.1 0.4 0
0.125 0.4 0
0.1 0.425 0
0.125 0.425 0
0.125 0.4 0
0.15 0.4 0
0.125 0.425 0
0.15 0.425 0
0.1 0.425 0
0.125 0.425 0
0.1 0.45 0
0.125 0.45 0
0.125 0.425 0
0.15 0.425 0
0.125 0.45 0
0.15 0.45 0
0.15 0.4 0
0.175 0.4 0
0.15 0.425 0
0.175 0.425 0
0.175 0.4 0
0.2 0.4 0
0.175 0.425 0
0.2 0.425 0
0.15 0.425 0
0.175 0.425 0
0.15 0.45 0
0.175 0.45 0
0.175 0.425 0
0.2 0.425 0
0.175 0.45 0
0.2 0.45 0
0.1 0.45 0
0.125 0.45 0
0.1 0.475 0
0.125 0.475 0
0.125 0.45 0
0.15 0.45 0
0.125 0.475 0
0.15 0.475 0
0.1 0.475 0
0.125 0.475 0
0.1 0.5 0
0.125 0.5 0
0.125 0.475 0
0.15 0.475 0
0.125 0.5 0
0.15 0.5 0
0.15 0.45 0
0.175 0.45 0
0.15 0.475 0
0.175 0.475 0
0.175 0.45 0
0.2 0.45 0
0.175 0.475 0
0.2 0.475 0
0.15 0.475 0
0.175 0.475 0
0.15 0.5 0
0.175 0.5 0
0.175 0.475 0
0.2 0.475 0
0.175 0.5 0
0.2 0.5 0
0 0.5 0
0.025 0.5 0
0 0.525 0
0.025 0.525 0
0.025 0.5 0
0.05 0.5 0
0.025 0.525 0
0.05 0.525 0
0 0.525 0
0.025 0.525 0
0 0.55 0
0.025 0.55 0
0.025 0.525 0
0.05 0.525 0
0.025 0.55 0
0.05 0.55 0
0.05 0.5 0
0.075 0.5 0
0.05 0.525 0
0.075 0.525 0
0.075 0.5 0
0.1 0.5 0
0.075 0.525 0
0.1 0.525 0
0.05 0.525 0
0.075 0.525 0
0.05 0.55 0
0.075 0.55 0
0.075 0.525 0
0.1 0.525 0
0.075 0.55 0
0.1 0.55 0
0 0.55 0
0.025 0.55 0
0 0.575 0
0.025 0.575 0
0.025 0.55 0
0.05 0.55 0
0.025 0.575 0
0.05 0.575 0
0 0.575 0
0.025 0.575 0
0 0.6 0
0.025 0.6 0
0.025 0.575 0
0.05 0.575 0
0.025 0.6 0
0.05 0.6 0
0.05 0.55 0
0.075 0.55 0
0.05 0.575 0
0.075 0.575 0
0.075 0.55 0
0.1 0.55 0
0.075 0.575 0
0.1 0.575 0
0.05 0.575 0
0.075 0.575 0
0.05 0.6 0
0.075 0.6 0
0.075 0.575 0
0.1 0.575 0
0.075 0.6 0
0.1 0.6 0
0.1 0.5 0
0.125 0.5 0
0.1 0.525 0
0.125 0.525 0
0.125 0.5 0
0.15 0.5 0
0.125 0.525 0
0.15 0.525 0
0.1 0.525 0
0.125 0.525 0
0.1 0.55 0
0.125 0.55 0
0.125 0.525 0
0.15 0.525 0
0.125 0.55 0
0.15 0.55 0
0.15 0.5 0
0.175 0.5 0
0.15 0.525 0
0.175 0.525 0
0.175 0.5 0
0.2 0.5 0
0.175 0.525 0
0.2 0.525 0
0.15 0.525 0
0.175 0.525 0
0.15 0.55 0
0.175 0.55 0
0.175 0.525 0
0.2 0.525 0
0.175 0.55 0
0.2 0.55 0
0.1 0.55 0
0.125 0.55 0
0.1 0.575 0
0.125 0.575 0
0.125 0.55 0
0.15 0.55 0
0.125 0.575 0
0.15 0.575 0
0.1 0.575 0
0.125 0.575 0
0.1 0.6 0
0.125 0.6 0
0.125 0.575 0
0.15 0.575 0
0.125 0.6 0
0.15 0.6 0
0.15 0.55 0
0.175 0.55 0
0.15 0.575 0
0.175 0.575 0
0.175 0.55 0
0.2 0.55 0
0.175 0.575 0
0.2 0.575 0
0.15 0.575 0
0.175 0.575 0
0.15 0.6 0
0.175 0.6 0
0.175 0.575 0
0.2 0.575 0
0.175 0.6 0
0.2 0.6 0
0 0.6 0
0.025 0.6 0
0 0.625 0
0.025 0.625 0
0.025 0.6 0
0.05 0.6 0
0.025 0.625 0
0.05 0.625 0
0 0.625 0
0.025 0.625 0
0 0.65 0
0.025 0.65 0
0.025 0.625 0
0.05 0.625 0
0.025 0.65 0
0.05 0.65 0
0.05 0.6 0
0.075 0.6 0
0.05 0.625 0
0.075 0.625 0
0.075 0.6 0
0.1 0.6 0
0.075 0.625 0
0.1 0.625 0
0.05 0.625 0
0.075 0.625 0
0.05 0.65 0
0.075 0.65 0
0.075 0.625 0
0.1 0.625 0
[...]
POINT_DATA 6400
VECTORS velocity double
0 0 0
0.0784591 0 0
0 -0.0784591 0
0.0782172 -0.0782172 0
0.0784591 0 0
0.156434 0 0
0.0782172 -0.0782172 0
0.155952 -0.0774931 0
0 -0.0784591 0
0.0782172 -0.0782172 0
0 -0.156434 0
0.0774931 -0.155952 0
0.0782172 -0.0782172 0
0.155952 -0.0774931 0
0.0774931 -0.155952 0
0.154509 -0.154509 0
0.156434 0 0
0.233445 0 0
0.155952 -0.0774931 0
0.232726 -0.0762913 0
0.233445 0 0
0.309017 0 0
0.232726 -0.0762913 0
0.308064 -0.074619 0
0.155952 -0.0774931 0
0.232726 -0.0762913 0
0.154509 -0.154509 0
0.230571 -0.152112 0
0.232726 -0.0762913 0
0.308064 -0.074619 0
0.230571 -0.152112 0
0.305212 -0.148778 0
0 -0.156434 0
0.0774931 -0.155952 0
0 -0.233445 0
0.0762913 -0.232726 0
0.0774931 -0.155952 0
0.154509 -0.154509 0
0.0762913 -0.232726 0
0.152112 -0.230571 0
0 -0.233445 0
0.0762913 -0.232726 0
0 -0.309017 0
0.074619 -0.308064 0
0.0762913 -0.232726 0
0.152112 -0.230571 0
0.074619 -0.308064 0
0.148778 -0.305212 0
0.154509 -0.154509 0
0.230571 -0.152112 0
0.152112 -0.230571 0
0.226995 -0.226995 0
0.230571 -0.152112 0
0.305212 -0.148778 0
0.226995 -0.226995 0
0.300479 -0.22202 0
0.152112 -0.230571 0
0.226995 -0.226995 0
0.148778 -0.305212 0
0.22202 -0.300479 0
0.226995 -0.226995 0
0.300479 -0.22202 0
0.22202 -0.300479 0
0.293893 -0.293893 0
0.309017 0 0
0.382683 0 0
0.308064 -0.074619 0
0.381504 -0.0724868 0
0.382683 0 0
0.45399 0 0
0.381504 -0.0724868 0
0.452591 -0.0699076 0
0.308064 -0.074619 0
0.381504 -0.0724868 0
0.305212 -0.148778 0
0.377972 -0.144527 0
0.381504 -0.0724868 0
0.452591 -0.0699076 0
0.377972 -0.144527 0
0.448401 -0.139384 0
0.45399 0 0
0.522499 0 0
0.452591 -0.0699076 0
0.520888 -0.0668974 0
0.522499 0 0
0.587785 0 0
0.520888 -0.0668974 0
0.585973 -0.0634748 0
0.452591 -0.0699076 0
0.520888 -0.0668974 0
0.448401 -0.139384 0
0.516066 -0.133382 0
0.520888 -0.0668974 0
0.585973 -0.0634748 0
0.516066 -0.133382 0
0.580549 -0.126558 0
0.305212 -0.148778 0
0.377972 -0.144527 0
0.300479 -0.22202 0
0.37211 -0.215675 0
0.377972 -0.144527 0
0.448401 -0.139384 0
0.37211 -0.215675 0
0.441447 -0.208001 0
0.300479 -0.22202 0
0.37211 -0.215675 0
0.293893 -0.293893 0
0.363954 -0.285495 0
0.37211 -0.215675 0
0.441447 -0.208001 0
0.363954 -0.285495 0
0.431771 -0.275336 0
0.448401 -0.139384 0
0.516066 -0.133382 0
0.441447 -0.208001 0
0.508062 -0.199045 0
0.516066 -0.133382 0
0.580549 -0.126558 0
0.508062 -0.199045 0
0.571545 -0.188861 0
0.441447 -0.208001 0
0.508062 -0.199045 0
0.431771 -0.275336 0
0.496926 -0.26348 0
0.508062 -0.199045 0
0.571545 -0.188861 0
0.496926 -0.26348 0
0.559017 -0.25 0
0 -0.309017 0
0.074619 -0.308064 0
0 -0.382683 0
0.0724868 -0.381504 0
0.074619 -0.308064 0
0.148778 -0.305212 0
0.0724868 -0.381504 0
0.144527 -0.377972 0
0 -0.382683 0
0.0724868 -0.381504 0
0 -0.45399 0
0.0699076 -0.452591 0
0.0724868 -0.381504 0
0.144527 -0.377972 0
0.0699076 -0.452591 0
0.139384 -0.448401 0
0.148778 -0.305212 0
0.22202 -0.300479 0
0.144527 -0.377972 0
0.215675 -0.37211 0
0.22202 -0.300479 0
0.293893 -0.293893 0
0.215675 -0.37211 0
0.285494 -0.363954 0
0.144527 -0.377972 0
0.215675 -0.37211 0
0.139384 -0.448401 0
0.208001 -0.441447 0
0.215675 -0.37211 0
0.285494 -0.363954 0
0.208001 -0.441447 0
0.275336 -0.431771 0
0 -0.45399 0
0.0699076 -0.452591 0
0 -0.522499 0
0.0668974 -0.520888 0
0.0699076 -0.452591 0
0.139384 -0.448401 0
0.0668974 -0.520888 0
0.133382 -0.516066 0
0 -0.522499 0
0.0668974 -0.520888 0
0 -0.587785 0
0.0634747 -0.585973 0
0.0668974 -0.520888 0
0.133382 -0.516066 0
0.0634747 -0.585973 0
0.126558 -0.580549 0
0.139384 -0.448401 0
0.208001 -0.441447 0
0.133382 -0.516066 0
0.199045 -0.508062 0
0.208001 -0.441447 0
0.275336 -0.431771 0
0.199045 -0.508062 0
0.26348 -0.496926 0
0.133382 -0.516066 0
0.199045 -0.508062 0
0.126558 -0.580549 0
0.188861 -0.571545 0
0.199045 -0.508062 0
0.26348 -0.496926 0
0.188861 -0.571545 0
0.25 -0.559017 0
0.293893 -0.293893 0
0.363954 -0.285495 0
0.285494 -0.363954 0
0.353553 -0.353553 0
0.363954 -0.285495 0
0.431771 -0.275336 0
0.353553 -0.353553 0
0.419433 -0.340973 0
0.285494 -0.363954 0
0.353553 -0.353553 0
0.275336 -0.431771 0
0.340973 -0.419433 0
0.353553 -0.353553 0
0.419433 -0.340973 0
0.340973 -0.419433 0
0.404509 -0.404509 0
0.431771 -0.275336 0
0.496926 -0.26348 0
0.419433 -0.340973 0
0.482726 -0.326291 0
0.496926 -0.26348 0
0.559017 -0.25 0
0.482726 -0.326291 0
0.543043 -0.309597 0
0.419433 -0.340973 0
0.482726 -0.326291 0
0.404509 -0.404509 0
0.46555 -0.387091 0
0.482726 -0.326291 0
0.543043 -0.309597 0
0.46555 -0.387091 0
0.523721 -0.367286 0
0.275336 -0.431771 0
0.340973 -0.419433 0
0.26348 -0.496926 0
0.326291 -0.482726 0
0.340973 -0.419433 0
0.404509 -0.404509 0
0.326291 -0.482726 0
0.387091 -0.46555 0
0.26348 -0.496926 0
0.326291 -0.482726 0
0.25 -0.559017 0
0.309597 -0.543043 0
0.326291 -0.482726 0
0.387091 -0.46555 0
0.309597 -0.543043 0
0.367286 -0.523721 0
0.404509 -0.404509 0
0.46555 -0.387091 0
0.387091 -0.46555 0
0.445503 -0.445503 0
0.46555 -0.387091 0
0.523721 -0.367286 0
0.445503 -0.445503 0
0.501169 -0.42271 0
0.387091 -0.46555 0
0.445503 -0.445503 0
0.367286 -0.523721 0
0.42271 -0.501169 0
0.445503 -0.445503 0
0.501169 -0.42271 0
0.42271 -0.501169 0
0.475528 -0.475528 0
0 -0.587785 0
0.0634747 -0.585973 0
0 -0.649448 0
0.0596608 -0.647446 0
0.0634747 -0.585973 0
0.126558 -0.580549 0
0.0596608 -0.647446 0
0.118954 -0.641452 0
0 -0.649448 0
0.0596608 -0.647446 0
0 -0.707107 0
0.055479 -0.704927 0
0.0596608 -0.647446 0
0.118954 -0.641452 0
0.055479 -0.704927 0
0.110616 -0.698401 0
0.126558 -0.580549 0
0.188861 -0.571545 0
0.118954 -0.641452 0
0.177513 -0.631504 0
0.188861 -0.571545 0
0.25 -0.559017 0
0.177513 -0.631504 0
0.234978 -0.617662 0
0.118954 -0.641452 0
0.177513 -0.631504 0
0.110616 -0.698401 0
0.165071 -0.687569 0
0.177513 -0.631504 0
0.234978 -0.617662 0
0.165071 -0.687569 0
0.218508 -0.672499 0
0 -0.707107 0
0.055479 -0.704927 0
0 -0.760406 0
0.0509551 -0.758062 0
0.055479 -0.704927 0
0.110616 -0.698401 0
0.0509551 -0.758062 0
0.101596 -0.751044 0
0 -0.760406 0
0.0509551 -0.758062 0
0 -0.809017 0
0.0461171 -0.806523 0
0.0509551 -0.758062 0
0.101596 -0.751044 0
0.0461171 -0.806523 0
0.0919499 -0.799057 0
0.110616 -0.698401 0
0.165071 -0.687569 0
0.101596 -0.751044 0
0.151611 -0.739396 0
0.165071 -0.687569 0
0.218508 -0.672499 0
0.151611 -0.739396 0
0.20069 -0.723189 0
0.101596 -0.751044 0
0.151611 -0.739396 0
0.0919499 -0.799057 0
0.137216 -0.786664 0
0.151611 -0.739396 0
0.20069 -0.723189 0
0.137216 -0.786664 0
0.181636 -0.769421 0
0.25 -0.559017 0
0.309597 -0.543043 0
0.234978 -0.617662 0
0.290995 -0.600012 0
0.309597 -0.543043 0
0.367286 -0.523721 0
0.290995 -0.600012 0
0.345217 -0.578662 0
0.234978 -0.617662 0
0.290995 -0.600012 0
0.218508 -0.672499 0
0.270598 -0.653282 0
0.290995 -0.600012 0
0.345217 -0.578662 0
0.270598 -0.653282 0
0.32102 -0.630037 0
0.367286 -0.523721 0
0.42271 -0.501169 0
0.345217 -0.578662 0
0.397311 -0.553746 0
0.42271 -0.501169 0
0.475528 -0.475528 0
0.397311 -0.553746 0
0.446955 -0.525415 0
0.345217 -0.578662 0
0.397311 -0.553746 0
0.32102 -0.630037 0
0.369462 -0.602908 0
0.397311 -0.553746 0
0.446955 -0.525415 0
0.369462 -0.602908 0
0.415627 -0.572061 0
0.218508 -0.672499 0
0.270598 -0.653282 0
0.20069 -0.723189 0
0.248533 -0.702524 0
0.270598 -0.653282 0
0.32102 -0.630037 0
0.248533 -0.702524 0
0.294843 -0.677527 0
0.20069 -0.723189 0
0.248533 -0.702524 0
0.181636 -0.769421 0
0.224936 -0.747434 0
0.248533 -0.702524 0
0.294843 -0.677527 0
0.224936 -0.747434 0
0.266849 -0.720839 0
0.32102 -0.630037 0
0.369462 -0.602908 0
0.294843 -0.677527 0
0.339336 -0.648353 0
0.369462 -0.602908 0
0.415627 -0.572061 0
0.339336 -0.648353 0
0.381736 -0.615181 0
0.294843 -0.677527 0
0.339336 -0.648353 0
0.266849 -0.720839 0
0.307117 -0.6898 0
0.339336 -0.648353 0
0.381736 -0.615181 0
0.307117 -0.6898 0
0.345491 -0.654509 0
0 -0.809017 0
0.0461171 -0.806523 0
0 -0.85264 0
0.0409948 -0.850012 0
0.0461171 -0.806523 0
0.0919499 -0.799057 0
0.0409948 -0.850012 0
0.0817368 -0.842143 0
0 -0.85264 0
0.0409948 -0.850012 0
0 -0.891007 0
0.0356197 -0.88826 0
0.0409948 -0.850012 0
0.0817368 -0.842143 0
0.0356197 -0.88826 0
0.0710198 -0.880037 0
0.0919499 -0.799057 0
0.137216 -0.786664 0
0.0817368 -0.842143 0
0.121975 -0.829082 0
0.137216 -0.786664 0
0.181636 -0.769421 0
0.121975 -0.829082 0
0.161461 -0.810909 0
0.0817368 -0.842143 0
0.121975 -0.829082 0
0.0710198 -0.880037 0
0.105982 -0.866388 0
0.121975 -0.829082 0
0.161461 -0.810909 0
0.105982 -0.866388 0
0.140291 -0.847398 0
0 -0.891007 0
0.0356197 -0.88826 0
0 -0.92388 0
0.030025 -0.921032 0
0.0356197 -0.88826 0
0.0710198 -0.880037 0
0.030025 -0.921032 0
0.0598649 -0.912505 0
0 -0.92388 0
0.030025 -0.921032 0
0 -0.951057 0
0.0242452 -0.948125 0
0.030025 -0.921032 0
0.0598649 -0.912505 0
0.0242452 -0.948125 0
0.0483409 -0.939347 0
0.0710198 -0.880037 0
0.105982 -0.866388 0
0.0598649 -0.912505 0
0.0893357 -0.898353 0
0.105982 -0.866388 0
0.140291 -0.847398 0
0.0893357 -0.898353 0
0.118256 -0.878662 0
0.0598649 -0.912505 0
0.0893357 -0.898353 0
0.0483409 -0.939347 0
0.0721386 -0.924779 0
0.0893357 -0.898353 0
0.118256 -0.878662 0
0.0721386 -0.924779 0
0.0954915 -0.904509 0
0.181636 -0.769421 0
0.224936 -0.747434 0
0.161461 -0.810909 0
0.199952 -0.787737 0
0.224936 -0.747434 0
0.266849 -0.720839 0
0.199952 -0.787737 0
0.237209 -0.759708 0
0.161461 -0.810909 0
0.199952 -0.787737 0
0.140291 -0.847398 0
0.173735 -0.823183 0
0.199952 -0.787737 0
0.237209 -0.759708 0
0.173735 -0.823183 0
0.206107 -0.793893 0
0.266849 -0.720839 0
0.307117 -0.6898 0
0.237209 -0.759708 0
0.273005 -0.726995 0
0.307117 -0.6898 0
0.345491 -0.654509 0
0.273005 -0.726995 0
0.307117 -0.6898 0
0.237209 -0.759708 0
0.273005 -0.726995 0
0.206107 -0.793893 0
0.237209 -0.759708 0
0.273005 -0.726995 0
0.307117 -0.6898 0
0.237209 -0.759708 0
0.266849 -0.720839 0
0.140291 -0.847398 0
0.173735 -0.823183 0
0.118256 -0.878662 0
0.146447 -0.853553 0
0.173735 -0.823183 0
0.206107 -0.793893 0
0.146447 -0.853553 0
0.173735 -0.823183 0
0.118256 -0.878662 0
0.146447 -0.853553 0
0.0954915 -0.904509 0
0.118256 -0.878662 0
0.146447 -0.853553 0
0.173735 -0.823183 0
0.118256 -0.878662 0
0.140291 -0.847398 0
0.206107 -0.793893 0
0.237209 -0.759708 0
0.173735 -0.823183 0
0.199952 -0.787737 0
0.237209 -0.759708 0
0.266849 -0.720839 0
0.199952 -0.787737 0
0.224936 -0.747434 0
0.173735 -0.823183 0
0.199952 -0.787737 0
0.140291 -0.847398 0
0.161461 -0.810909 0
0.199952 -0.787737 0
0.224936 -0.747434 0
0.161461 -0.810909 0
0.181636 -0.769421 0
0 -0.951057 0
0.0242452 -0.948125 0
0 -0.97237 0
0.0183159 -0.969372 0
0.0242452 -0.948125 0
0.0483409 -0.939347 0
0.0183159 -0.969372 0
0.0365189 -0.960398 0
0 -0.97237 0
0.0183159 -0.969372 0
0 -0.987688 0
0.0122737 -0.984644 0
0.0183159 -0.969372 0
0.0365189 -0.960398 0
0.0122737 -0.984644 0
0.0244717 -0.975528 0
0.0483409 -0.939347 0
0.0721386 -0.924779 0
0.0365189 -0.960398 0
0.0544967 -0.945503 0
0.0721386 -0.924779 0
0.0954915 -0.904509 0
0.0544967 -0.945503 0
0.0721386 -0.924779 0
0.0365189 -0.960398 0
0.0544967 -0.945503 0
0.0244717 -0.975528 0
0.0365189 -0.960398 0
0.0544967 -0.945503 0
0.0721386 -0.924779 0
0.0365189 -0.960398 0
0.0483409 -0.939347 0
0 -0.987688 0
0.0122737 -0.984644 0
0 -0.996917 0
0.00615583 -0.993844 0
0.0122737 -0.984644 0
0.0244717 -0.975528 0
0.00615583 -0.993844 0
0.0122737 -0.984644 0
0 -0.996917 0
0.00615583 -0.993844 0
0 -1 0
7.8087e-10 -0.996917 0
0.00615583 -0.993844 0
0.0122737 -0.984644 0
7.8087e-10 -0.996917 0
1.55969e-09 -0.987688 0
0.0244717 -0.975528 0
0.0365189 -0.960398 0
0.0122737 -0.984644 0
0.0183159 -0.969372 0
0.0365189 -0.960398 0
0.0483409 -0.939347 0
0.0183159 -0.969372 0
0.0242452 -0.948125 0
0.0122737 -0.984644 0
0.0183159 -0.969372 0
1.55969e-09 -0.987688 0
2.32626e-09 -0.97237 0
0.0183159 -0.969372 0
0.0242452 -0.948125 0
2.32626e-09 -0.97237 0
3.09954e-09 -0.951057 0
0.0954915 -0.904509 0
0.118256 -0.878662 0
0.0721386 -0.924779 0
0.0893357 -0.898353 0
0.118256 -0.878662 0
0.140291 -0.847398 0
0.0893357 -0.898353 0
0.105982 -0.866388 0
0.0721386 -0.924779 0
0.0893357 -0.898353 0
0.0483409 -0.939347 0
0.0598649 -0.912505 0
0.0893357 -0.898353 0
0.105982 -0.866388 0
0.0598649 -0.912505 0
0.0710198 -0.880037 0
0.140291 -0.847398 0
0.161461 -0.810909 0
0.105982 -0.866388 0
0.121975 -0.829082 0
0.161461 -0.810909 0
0.181636 -0.769421 0
0.121975 -0.829082 0
0.137216 -0.786664 0
0.105982 -0.866388 0
0.121975 -0.829082 0
0.0710198 -0.880037 0
0.0817368 -0.842143 0
0.121975 -0.829082 0
0.137216 -0.786664 0
0.0817368 -0.842143 0
0.0919499 -0.799057 0
0.0483409 -0.939347 0
0.0598649 -0.912505 0
0.0242452 -0.948125 0
0.030025 -0.921032 0
0.0598649 -0.912505 0
0.0710198 -0.880037 0
0.030025 -0.921032 0
0.0356197 -0.88826 0
0.0242452 -0.948125 0
0.030025 -0.921032 0
3.09954e-09 -0.951057 0
3.88588e-09 -0.92388 0
0.030025 -0.921032 0
0.0356197 -0.88826 0
3.88588e-09 -0.92388 0
4.68886e-09 -0.891007 0
0.0710198 -0.880037 0
0.0817368 -0.842143 0
0.0356197 -0.88826 0
0.0409948 -0.850012 0
0.0817368 -0.842143 0
0.0919499 -0.799057 0
0.0409948 -0.850012 0
0.0461171 -0.806523 0
0.0356197 -0.88826 0
0.0409948 -0.850012 0
4.68886e-09 -0.891007 0
5.51068e-09 -0.85264 0
0.0409948 -0.850012 0
0.0461171 -0.806523 0
5.51068e-09 -0.85264 0
6.35254e-09 -0.809017 0
0 -1 0
7.8087e-10 -0.996917 0
0 -0.996917 0
-0.00615583 -0.993844 0
7.8087e-10 -0.996917 0
1.55969e-09 -0.987688 0
-0.00615583 -0.993844 0
-0.0122737 -0.984644 0
0 -0.996917 0
-0.00615583 -0.993844 0
0 -0.987688 0
-0.0122737 -0.984644 0
-0.00615583 -0.993844 0
-0.0122737 -0.984644 0
-0.0122737 -0.984644 0
-0.0244717 -0.975528 0
1.55969e-09 -0.987688 0
2.32626e-09 -0.97237 0
-0.0122737 -0.984644 0
-0.0183159 -0.969372 0
2.32626e-09 -0.97237 0
3.09954e-09 -0.951057 0
-0.0183159 -0.969372 0
-0.0242452 -0.948125 0
-0.0122737 -0.984644 0
-0.0183159 -0.969372 0
-0.0244717 -0.975528 0
-0.0365189 -0.960398 0
-0.0183159 -0.969372 0
-0.0242452 -0.948125 0
-0.0365189 -0.960398 0
-0.0483409 -0.939347 0
0 -0.987688 0
-0.0122737 -0.984644 0
0 -0.97237 0
-0.0183159 -0.969372 0
-0.0122737 -0.984644 0
-0.0244717 -0.975528 0
-0.0183159 -0.969372 0
-0.0365189 -0.960398 0
0 -0.97237 0
-0.0183159 -0.969372 0
0 -0.951057 0
-0.0242452 -0.948125 0
-0.0183159 -0.969372 0
-0.0365189 -0.960398 0
-0.0242452 -0.948125 0
-0.0483409 -0.939347 0
-0.0244717 -0.975528 0
-0.0365189 -0.960398 0
-0.0365189 -0.960398 0
-0.0544967 -0.945503 0
-0.0365189 -0.960398 0
-0.0483409 -0.939347 0
-0.0544967 -0.945503 0
-0.0721386 -0.924779 0
-0.0365189 -0.960398 0
-0.0544967 -0.945503 0
-0.0483409 -0.939347 0
-0.0721386 -0.924779 0
-0.0544967 -0.945503 0
-0.0721386 -0.924779 0
-0.0721386 -0.924779 0
-0.0954915 -0.904508 0
3.09954e-09 -0.951057 0
3.88588e-09 -0.92388 0
-0.0242452 -0.948125 0
-0.030025 -0.921032 0
3.88588e-09 -0.92388 0
4.68886e-09 -0.891007 0
-0.030025 -0.921032 0
-0.0356197 -0.88826 0
-0.0242452 -0.948125 0
-0.030025 -0.921032 0
-0.0483409 -0.939347 0
-0.0598649 -0.912505 0
-0.030025 -0.921032 0
-0.0356197 -0.88826 0
-0.0598649 -0.912505 0
-0.0710198 -0.880037 0
4.68886e-09 -0.891007 0
5.51068e-09 -0.85264 0
-0.0356197 -0.88826 0
-0.0409948 -0.850012 0
5.51068e-09 -0.85264 0
6.35254e-09 -0.809017 0
-0.0409948 -0.850012 0
-0.0461171 -0.806523 0
-0.0356197 -0.88826 0
-0.0409948 -0.850012 0
-0.0710198 -0.880037 0
-0.0817368 -0.842143 0
-0.0409948 -0.850012 0
-0.0461171 -0.806523 0
-0.0817368 -0.842143 0
-0.0919499 -0.799057 0
-0.0483409 -0.939347 0
-0.0598649 -0.912505 0
-0.0721386 -0.924779 0
-0.0893357 -0.898353 0
-0.0598649 -0.912505 0
-0.0710198 -0.880037 0
-0.0893357 -0.898353 0
-0.105982 -0.866388 0
-0.0721386 -0.924779 0
-0.0893357 -0.898353 0
-0.0954915 -0.904508 0
-0.118256 -0.878662 0
-0.0893357 -0.898353 0
-0.105982 -0.866388 0
-0.118256 -0.878662 0
-0.140291 -0.847398 0
-0.0710198 -0.880037 0
-0.0817368 -0.842143 0
-0.105982 -0.866388 0
-0.121975 -0.829082 0
-0.0817368 -0.842143 0
-0.0919499 -0.799057 0
-0.121975 -0.829082 0
-0.137216 -0.786664 0
-0.105982 -0.866388 0
-0.121975 -0.829082 0
-0.140291 -0.847398 0
-0.161461 -0.810909 0
-0.121975 -0.829082 0
-0.137216 -0.786664 0
-0.161461 -0.810909 0
-0.181636 -0.769421 0
0 -0.951057 0
-0.0242452 -0.948125 0
0 -0.92388 0
-0.030025 -0.921032 0
-0.0242452 -0.948125 0
-0.0483409 -0.939347 0
-0.030025 -0.921032 0
-0.0598649 -0.912505 0
0 -0.92388 0
-0.030025 -0.921032 0
0 -0.891007 0
-0.0356197 -0.88826 0
-0.030025 -0.921032 0
-0.0598649 -0.912505 0
-0.0356197 -0.88826 0
-0.0710198 -0.880037 0
-0.0483409 -0.939347 0
-0.0721386 -0.924779 0
-0.0598649 -0.912505 0
-0.0893357 -0.898353 0
-0.0721386 -0.924779 0
-0.0954915 -0.904508 0
-0.0893357 -0.898353 0
-0.118256 -0.878662 0
-0.0598649 -0.912505 0
-0.0893357 -0.898353 0
-0.0710198 -0.880037 0
-0.105982 -0.866388 0
-0.0893357 -0.898353 0
-0.118256 -0.878662 0
-0.105982 -0.866388 0
-0.140291 -0.847398 0
0 -0.891007 0
-0.0356197 -0.88826 0
0 -0.85264 0
-0.0409948 -0.850012 0
-0.0356197 -0.88826 0
-0.0710198 -0.880037 0
-0.0409948 -0.850012 0
-0.0817368 -0.842143 0
0 -0.85264 0
-0.0409948 -0.850012 0
0 -0.809017 0
-0.0461171 -0.806523 0
-0.0409948 -0.850012 0
-0.0817368 -0.842143 0
-0.0461171 -0.806523 0
-0.0919499 -0.799057 0
-0.0710198 -0.880037 0
-0.105982 -0.866388 0
-0.0817368 -0.842143 0
-0.121975 -0.829082 0
-0.105982 -0.866388 0
-0.140291 -0.847398 0
-0.121975 -0.829082 0
-0.161461 -0.810909 0
-0.0817368 -0.842143 0
-0.121975 -0.829082 0
-0.0919499 -0.799057 0
-0.137216 -0.786664 0
-0.121975 -0.829082 0
-0.161461 -0.810909 0
-0.137216 -0.786664 0
-0.181636 -0.769421 0
-0.0954915 -0.904508 0
-0.118256 -0.878662 0
-0.118256 -0.878662 0
-0.146447 -0.853553 0
-0.118256 -0.878662 0
-0.140291 -0.847398 0
-0.146447 -0.853553 0
-0.173735 -0.823183 0
-0.118256 -0.878662 0
-0.146447 -0.853553 0
-0.140291 -0.847398 0
-0.173735 -0.823183 0
-0.146447 -0.853553 0
-0.173735 -0.823183 0
-0.173735 -0.823183 0
-0.206107 -0.793893 0
-0.140291 -0.847398 0
-0.161461 -0.810909 0
-0.173735 -0.823183 0
-0.199952 -0.787737 0
-0.161461 -0.810909 0
-0.181636 -0.769421 0
-0.199952 -0.787737 0
-0.224936 -0.747434 0
-0.173735 -0.823183 0
-0.199952 -0.787737 0
-0.206107 -0.793893 0
-0.237209 -0.759708 0
-0.199952 -0.787737 0
-0.224936 -0.747434 0
-0.237209 -0.759708 0
-0.266849 -0.720839 0
-0.140291 -0.847398 0
-0.173735 -0.823183 0
-0.161461 -0.810909 0
-0.199952 -0.787737 0
-0.173735 -0.823183 0
-0.206107 -0.793893 0
-0.199952 -0.787737 0
-0.237209 -0.759708 0
-0.161461 -0.810909 0
-0.199952 -0.787737 0
-0.181636 -0.769421 0
-0.224936 -0.747434 0
-0.199952 -0.787737 0
-0.237209 -0.759708 0
-0.224936 -0.747434 0
-0.266849 -0.720839 0
-0.206107 -0.793893 0
-0.237209 -0.759708 0
-0.237209 -0.759708 0
-0.273005 -0.726995 0
-0.237209 -0.759708 0
-0.266849 -0.720839 0
-0.273005 -0.726995 0
-0.307117 -0.6898 0
-0.237209 -0.759708 0
-0.273005 -0.726995 0
-0.266849 -0.720839 0
-0.307117 -0.6898 0
-0.273005 -0.726995 0
-0.307117 -0.6898 0
-0.307117 -0.6898 0
-0.345491 -0.654508 0
0 -0.809017 0
-0.0461171 -0.806523 0
0 -0.760406 0
-0.0509551 -0.758062 0
-0.0461171 -0.806523 0
-0.0919499 -0.799057 0
-0.0509551 -0.758062 0
-0.101596 -0.751044 0
0 -0.760406 0
-0.0509551 -0.758062 0
0 -0.707107 0
-0.055479 -0.704927 0
-0.0509551 -0.758062 0
-0.101596 -0.751044 0
-0.055479 -0.704927 0
-0.110616 -0.698401 0
-0.0919499 -0.799057 0
-0.137216 -0.786664 0
-0.101596 -0.751044 0
-0.151611 -0.739396 0
-0.137216 -0.786664 0
-0.181636 -0.769421 0
-0.151611 -0.739396 0
-0.20069 -0.723189 0
-0.101596 -0.751044 0
-0.151611 -0.739396 0
-0.110616 -0.698401 0
-0.165071 -0.687569 0
-0.151611 -0.739396 0
-0.20069 -0.723189 0
-0.165071 -0.687569 0
-0.218508 -0.672499 0
0 -0.707107 0
-0.055479 -0.704927 0
0 -0.649448 0
-0.0596608 -0.647446 0
-0.055479 -0.704927 0
-0.110616 -0.698401 0
-0.0596608 -0.647446 0
-0.118954 -0.641452 0
0 -0.649448 0
-0.0596608 -0.647446 0
0 -0.587785 0
-0.0634747 -0.585973 0
-0.0596608 -0.647446 0
-0.118954 -0.641452 0
-0.0634747 -0.585973 0
-0.126558 -0.580549 0
-0.110616 -0.698401 0
-0.165071 -0.687569 0
-0.118954 -0.641452 0
-0.177513 -0.631504 0
-0.165071 -0.687569 0
-0.218508 -0.672499 0
-0.177513 -0.631504 0
-0.234978 -0.617662 0