# vtk DataFile Version 3.0
#This file was generated by the deal.II library on 2026/5/29 at 10:56:34
ASCII
DATASET UNSTRUCTURED_GRID

POINTS 400 double
0 0 0
0.1 0 0
0 0.1 0
0.1 0.1 0
0.1 0 0
0.2 0 0
0.1 0.1 0
0.2 0.1 0
0 0.1 0
0.1 0.1 0
0 0.2 0
0.1 0.2 0
0.1 0.1 0
0.2 0.1 0
0.1 0.2 0
0.2 0.2 0
0 0.2 0
0.1 0.2 0
0 0.3 0
0.1 0.3 0
0.1 0.2 0
0.2 0.2 0
0.1 0.3 0
0.2 0.3 0
0 0.3 0
0.1 0.3 0
0 0.4 0
0.1 0.4 0
0.1 0.3 0
0.2 0.3 0
0.1 0.4 0
0.2 0.4 0
0 0.4 0
0.1 0.4 0
0 0.5 0
0.1 0.5 0
0.1 0.4 0
0.2 0.4 0
0.1 0.5 0
0.2 0.5 0
0 0.5 0
0.1 0.5 0
0 0.6 0
0.1 0.6 0
0.1 0.5 0
0.2 0.5 0
0.1 0.6 0
0.2 0.6 0
0 0.6 0
0.1 0.6 0
0 0.7 0
0.1 0.7 0
0.1 0.6 0
0.2 0.6 0
0.1 0.7 0
0.2 0.7 0
0 0.7 0
0.1 0.7 0
0 0.8 0
0.1 0.8 0
0.1 0.7 0
0.2 0.7 0
0.1 0.8 0
0.2 0.8 0
0 0.8 0
0.1 0.8 0
0 0.9 0
0.1 0.9 0
0.1 0.8 0
0.2 0.8 0
0.1 0.9 0
0.2 0.9 0
0 0.9 0
0.1 0.9 0
0 1 0
0.1 1 0
0.1 0.9 0
0.2 0.9 0
0.1 1 0
0.2 1 0
0.2 0 0
0.3 0 0
0.2 0.1 0
0.3 0.1 0
0.3 0 0
0.4 0 0
0.3 0.1 0
0.4 0.1 0
0.2 0.1 0
0.3 0.1 0
0.2 0.2 0
0.3 0.2 0
0.3 0.1 0
0.4 0.1 0
0.3 0.2 0
0.4 0.2 0
0.2 0.2 0
0.3 0.2 0
0.2 0.3 0
0.3 0.3 0
0.3 0.2 0
0.4 0.2 0
0.3 0.3 0
0.4 0.3 0
0.2 0.3 0
0.3 0.3 0
0.2 0.4 0
0.3 0.4 0
0.3 0.3 0
0.4 0.3 0
0.3 0.4 0
0.4 0.4 0
0.2 0.4 0
0.3 0.4 0
0.2 0.5 0
0.3 0.5 0
0.3 0.4 0
0.4 0.4 0
0.3 0.5 0
0.4 0.5 0
0.2 0.5 0
0.3 0.5 0
0.2 0.6 0
0.3 0.6 0
0.3 0.5 0
0.4 0.5 0
0.3 0.6 0
0.4 0.6 0
0.2 0.6 0
0.3 0.6 0
0.2 0.7 0
0.3 0.7 0
0.3 0.6 0
0.4 0.6 0
0.3 0.7 0
0.4 0.7 0
0.2 0.7 0
0.3 0.7 0
0.2 0.8 0
0.3 0.8 0
0.3 0.7 0
0.4 0.7 0
0.3 0.8 0
0.4 0.8 0
0.2 0.8 0
0.3 0.8 0
0.2 0.9 0
0.3 0.9 0
0.3 0.8 0
0.4 0.8 0
0.3 0.9 0
0.4 0.9 0
0.2 0.9 0
0.3 0.9 0
0.2 1 0
0.3 1 0
0.3 0.9 0
0.4 0.9 0
0.3 1 0
0.4 1 0
0.4 0 0
0.5 0 0
0.4 0.1 0
0.5 0.1 0
0.5 0 0
0.6 0 0
0.5 0.1 0
0.6 0.1 0
0.4 0.1 0
0.5 0.1 0
0.4 0.2 0
0.5 0.2 0
0.5 0.1 0
0.6 0.1 0
0.5 0.2 0
0.6 0.2 0
0.4 0.2 0
0.5 0.2 0
0.4 0.3 0
0.5 0.3 0
0.5 0.2 0
0.6 0.2 0
0.5 0.3 0
0.6 0.3 0
0.4 0.3 0
0.5 0.3 0
0.4 0.4 0
0.5 0.4 0
0.5 0.3 0
0.6 0.3 0
0.5 0.4 0
0.6 0.4 0
0.4 0.4 0
0.5 0.4 0
0.4 0.5 0
0.5 0.5 0
0.5 0.4 0
0.6 0.4 0
0.5 0.5 0
0.6 0.5 0
0.4 0.5 0
0.5 0.5 0
0.4 0.6 0
0.5 0.6 0
0.5 0.5 0
0.6 0.5 0
0.5 0.6 0
0.6 0.6 0
0.4 0.6 0
0.5 0.6 0
0.4 0.7 0
0.5 0.7 0
0.5 0.6 0
0.6 0.6 0
0.5 0.7 0
0.6 0.7 0
0.4 0.7 0
0.5 0.7 0
0.4 0.8 0
0.5 0.8 0
0.5 0.7 0
0.6 0.7 0
0.5 0.8 0
0.6 0.8 0
0.4 0.8 0
0.5 0.8 0
0.4 0.9 0
0.5 0.9 0
0.5 0.8 0
0.6 0.8 0
0.5 0.9 0
0.6 0.9 0
0.4 0.9 0
0.5 0.9 0
0.4 1 0
0.5 1 0
0.5 0.9 0
0.6 0.9 0
0.5 1 0
0.6 1 0
0.6 0 0
0.7 0 0
0.6 0.1 0
0.7 0.1 0
0.7 0 0
0.8 0 0
0.7 0.1 0
0.8 0.1 0
0.6 0.1 0
0.7 0.1 0
0.6 0.2 0
0.7 0.2 0
0.7 0.1 0
0.8 0.1 0
0.7 0.2 0
0.8 0.2 0
0.6 0.2 0
0.7 0.2 0
0.6 0.3 0
0.7 0.3 0
0.7 0.2 0
0.8 0.2 0
0.7 0.3 0
0.8 0.3 0
0.6 0.3 0
0.7 0.3 0
0.6 0.4 0
0.7 0.4 0
0.7 0.3 0
0.8 0.3 0
0.7 0.4 0
0.8 0.4 0
0.6 0.4 0
0.7 0.4 0
0.6 0.5 0
0.7 0.5 0
0.7 0.4 0
0.8 0.4 0
0.7 0.5 0
0.8 0.5 0
0.6 0.5 0
0.7 0.5 0
0.6 0.6 0
0.7 0.6 0
0.7 0.5 0
0.8 0.5 0
0.7 0.6 0
0.8 0.6 0
0.6 0.6 0
0.7 0.6 0
0.6 0.7 0
0.7 0.7 0
0.7 0.6 0
0.8 0.6 0
0.7 0.7 0
0.8 0.7 0
0.6 0.7 0
0.7 0.7 0
0.6 0.8 0
0.7 0.8 0
0.7 0.7 0
0.8 0.7 0
0.7 0.8 0
0.8 0.8 0
0.6 0.8 0
0.7 0.8 0
0.6 0.9 0
0.7 0.9 0
0.7 0.8 0
0.8 0.8 0
0.7 0.9 0
0.8 0.9 0
0.6 0.9 0
0.7 0.9 0
0.6 1 0
0.7 1 0
0.7 0.9 0
0.8 0.9 0
0.7 1 0
0.8 1 0
0.8 0 0
0.9 0 0
0.8 0.1 0
0.9 0.1 0
0.9 0 0
1 0 0
0.9 0.1 0
1 0.1 0
0.8 0.1 0
0.9 0.1 0
0.8 0.2 0
0.9 0.2 0
0.9 0.1 0
1 0.1 0
0.9 0.2 0
1 0.2 0
0.8 0.2 0
0.9 0.2 0
0.8 0.3 0
0.9 0.3 0
0.9 0.2 0
1 0.2 0
0.9 0.3 0
1 0.3 0
0.8 0.3 0
0.9 0.3 0
0.8 0.4 0
0.9 0.4 0
0.9 0.3 0
1 0.3 0
0.9 0.4 0
1 0.4 0
0.8 0.4 0
0.9 0.4 0
0.8 0.5 0
0.9 0.5 0
0.9 0.4 0
1 0.4 0
0.9 0.5 0
1 0.5 0
0.8 0.5 0
0.9 0.5 0
0.8 0.6 0
0.9 0.6 0
0.9 0.5 0
1 0.5 0
0.9 0.6 0
1 0.6 0
0.8 0.6 0
0.9 0.6 0
0.8 0.7 0
0.9 0.7 0
0.9 0.6 0
1 0.6 0
0.9 0.7 0
1 0.7 0
0.8 0.7 0
0.9 0.7 0
0.8 0.8 0
0.9 0.8 0
0.9 0.7 0
1 0.7 0
0.9 0.8 0
1 0.8 0
0.8 0.8 0
0.9 0.8 0
0.8 0.9 0
0.9 0.9 0
0.9 0.8 0
1 0.8 0
0.9 0.9 0
1 0.9 0
0.8 0.9 0
0.9 0.9 0
0.8 1 0
0.9 1 0
0.9 0.9 0
1 0.9 0
0.9 1 0
1 1 0

CELLS 100 500
4	0	1	3	2
4	4	5	7	6
4	8	9	11	10
4	12	13	15	14
4	16	17	19	18
4	20	21	23	22
4	24	25	27	26
4	28	29	31	30
4	32	33	35	34
4	36	37	39	38
4	40	41	43	42
4	44	45	47	46
4	48	49	51	50
4	52	53	55	54
4	56	57	59	58
4	60	61	63	62
4	64	65	67	66
4	68	69	71	70
4	72	73	75	74
4	76	77	79	78
4	80	81	83	82
4	84	85	87	86
4	88	89	91	90
4	92	93	95	94
4	96	97	99	98
4	100	101	103	102
4	104	105	107	106
4	108	109	111	110
4	112	113	115	114
4	116	117	119	118
4	120	121	123	122
4	124	125	127	126
4	128	129	131	130
4	132	133	135	134
4	136	137	139	138
4	140	141	143	142
4	144	145	147	146
4	148	149	151	150
4	152	153	155	154
4	156	157	159	158
4	160	161	163	162
4	164	165	167	166
4	168	169	171	170
4	172	173	175	174
4	176	177	179	178
4	180	181	183	182
4	184	185	187	186
4	188	189	191	190
4	192	193	195	194
4	196	197	199	198
4	200	201	203	202
4	204	205	207	206
4	208	209	211	210
4	212	213	215	214
4	216	217	219	218
4	220	221	223	222
4	224	225	227	226
4	228	229	231	230
4	232	233	235	234
4	236	237	239	238
4	240	241	243	242
4	244	245	247	246
4	248	249	251	250
4	252	253	255	254
4	256	257	259	258
4	260	261	263	262
4	264	265	267	266
4	268	269	271	270
4	272	273	275	274
4	276	277	279	278
4	280	281	283	282
4	284	285	287	286
4	288	289	291	290
4	292	293	295	294
4	296	297	299	298
4	300	301	303	302
4	304	305	307	306
4	308	309	311	310
4	312	313	315	314
4	316	317	319	318
4	320	321	323	322
4	324	325	327	326
4	328	329	331	330
4	332	333	335	334
4	336	337	339	338
4	340	341	343	342
4	344	345	347	346
4	348	349	351	350
4	352	353	355	354
4	356	357	359	358
4	360	361	363	362
4	364	365	367	366
4	368	369	371	370
4	372	373	375	374
4	376	377	379	378
4	380	381	383	382
4	384	385	387	386
4	388	389	391	390
4	392	393	395	394
4	396	397	399	398

CELL_TYPES 100
 9 9 9 9 9 9 9 9 9 9 9 9 9 9 9 9 9 9 9 9 9 9 9 9 9 9 9 9 9 9 9 9 9 9 9 9 9 9 9 9 9 9 9 9 9 9 9 9 9 9 9 9 9 9 9 9 9 9 9 9 9 9 9 9 9 9 9 9 9 9 9 9 9 9 9 9 9 9 9 9 9 9 9 9 9 9 9 9 9 9 9 9 9 9 9 9 9 9 9 9
POINT_DATA 400
VECTORS velocity double
0 0 0
0.309017 0 0
0 -0.309017 0
0.293893 -0.293899 0
0.309017 0 0
0.587785 0 0
0.293893 -0.293899 0
0.559017 -0.250008 0
0 -0.309017 0
0.293893 -0.293899 0
0 -0.587785 0
0.25 -0.559023 0
0.293893 -0.293899 0
0.559017 -0.250008 0
0.25 -0.559023 0
0.475527 -0.475538 0
0 -0.587785 0
0.25 -0.559023 0
0 -0.809017 0
0.181634 -0.769425 0
0.25 -0.559023 0
0.475527 -0.475538 0
0.181634 -0.769425 0
0.345488 -0.654516 0
0 -0.809017 0
0.181634 -0.769425 0
0 -0.951057 0
0.0954891 -0.90451 0
0.181634 -0.769425 0
0.345488 -0.654516 0
0.0954891 -0.90451 0
0.181631 -0.769423 0
0 -0.951057 0
0.0954891 -0.90451 0
0 -1 0
-2.90289e-06 -0.951055 0
0.0954891 -0.90451 0
0.181631 -0.769423 0
-2.90289e-06 -0.951055 0
-5.5206e-06 -0.809015 0
0 -1 0
-2.90289e-06 -0.951055 0
0 -0.951057 0
-0.0954947 -0.904505 0
-2.90289e-06 -0.951055 0
-5.5206e-06 -0.809015 0
-0.0954947 -0.904505 0
-0.181641 -0.769415 0
0 -0.951057 0
-0.0954947 -0.904505 0
0 -0.809017 0
-0.181639 -0.769417 0
-0.0954947 -0.904505 0
-0.181641 -0.769415 0
-0.181639 -0.769417 0
-0.345497 -0.654502 0
0 -0.809017 0
-0.181639 -0.769417 0
0 -0.587785 0
-0.250004 -0.559012 0
-0.181639 -0.769417 0
-0.345497 -0.654502 0
-0.250004 -0.559012 0
-0.475534 -0.475523 0
0 -0.587785 0
-0.250004 -0.559012 0
0 -0.309017 0
-0.293896 -0.293888 0
-0.250004 -0.559012 0
-0.475534 -0.475523 0
-0.293896 -0.293888 0
-0.559021 -0.249996 0
0 -0.309017 0
-0.293896 -0.293888 0
0 -1.22465e-16 0
-0.309017 -1.16471e-16 0
-0.293896 -0.293888 0
-0.559021 -0.249996 0
-0.309017 -1.16471e-16 0
-0.587785 -9.9076e-17 0
0.587785 0 0
0.809017 0 0
0.559017 -0.250008 0
0.769421 -0.181644 0
0.809017 0 0
0.951057 0 0
0.769421 -0.181644 0
0.904508 -0.0954994 0
0.559017 -0.250008 0
0.769421 -0.181644 0
0.475527 -0.475538 0
0.654507 -0.345502 0
0.769421 -0.181644 0
0.904508 -0.0954994 0
0.654507 -0.345502 0
0.76942 -0.181647 0
0.475527 -0.475538 0
0.654507 -0.345502 0
0.345488 -0.654516 0
0.475524 -0.475538 0
0.654507 -0.345502 0
0.76942 -0.181647 0
0.475524 -0.475538 0
0.559014 -0.250012 0
0.345488 -0.654516 0
0.475524 -0.475538 0
0.181631 -0.769423 0
0.249994 -0.559022 0
0.475524 -0.475538 0
0.559014 -0.250012 0
0.249994 -0.559022 0
0.293889 -0.2939 0
0.181631 -0.769423 0
0.249994 -0.559022 0
-5.5206e-06 -0.809015 0
-6.49116e-06 -0.587783 0
0.249994 -0.559022 0
0.293889 -0.2939 0
-6.49116e-06 -0.587783 0
-3.5266e-06 -0.309016 0
-5.5206e-06 -0.809015 0
-6.49116e-06 -0.587783 0
-0.181641 -0.769415 0
-0.250006 -0.55901 0
-6.49116e-06 -0.587783 0
-3.5266e-06 -0.309016 0
-0.250006 -0.55901 0
-0.293895 -0.293885 0
-0.181641 -0.769415 0
-0.250006 -0.55901 0
-0.345497 -0.654502 0
-0.475534 -0.47552 0
-0.250006 -0.55901 0
-0.293895 -0.293885 0
-0.475534 -0.47552 0
-0.559018 -0.249991 0
-0.345497 -0.654502 0
-0.475534 -0.47552 0
-0.475534 -0.475523 0
-0.654513 -0.345485 0
-0.475534 -0.47552 0
-0.559018 -0.249991 0
-0.654513 -0.345485 0
-0.769421 -0.181629 0
-0.475534 -0.475523 0
-0.654513 -0.345485 0
-0.559021 -0.249996 0
-0.769423 -0.181632 0
-0.654513 -0.345485 0
-0.769421 -0.181629 0
-0.769423 -0.181632 0
-0.904508 -0.0954887 0
-0.559021 -0.249996 0
-0.769423 -0.181632 0
-0.587785 -9.9076e-17 0
-0.809017 -7.19829e-17 0
-0.769423 -0.181632 0
-0.904508 -0.0954887 0
-0.809017 -7.19829e-17 0
-0.951057 -3.78437e-17 0
0.951057 0 0
1 0 0
0.904508 -0.0954994 0
0.951057 -7.14625e-06 0
1 0 0
0.951057 0 0
0.951057 -7.14625e-06 0
0.904509 0.0954858 0
0.904508 -0.0954994 0
0.951057 -7.14625e-06 0
0.76942 -0.181647 0
0.809017 -1.09518e-05 0
0.951057 -7.14625e-06 0
0.904509 0.0954858 0
0.809017 -1.09518e-05 0
0.769423 0.181626 0
0.76942 -0.181647 0
0.809017 -1.09518e-05 0
0.559014 -0.250012 0
0.587786 -1.20761e-05 0
0.809017 -1.09518e-05 0
0.769423 0.181626 0
0.587786 -1.20761e-05 0
0.559022 0.249989 0
0.559014 -0.250012 0
0.587786 -1.20761e-05 0
0.293889 -0.2939 0
0.309019 -8.56076e-06 0
0.587786 -1.20761e-05 0
0.559022 0.249989 0
0.309019 -8.56076e-06 0
0.293902 0.293884 0
0.293889 -0.2939 0
0.309019 -8.56076e-06 0
-3.5266e-06 -0.309016 0
4.08232e-06 -4.53719e-07 0
0.309019 -8.56076e-06 0
0.293902 0.293884 0
4.08232e-06 -4.53719e-07 0
1.15724e-05 0.309015 0
-3.5266e-06 -0.309016 0
4.08232e-06 -4.53719e-07 0
-0.293895 -0.293885 0
-0.309011 6.53688e-06 0
4.08232e-06 -4.53719e-07 0
1.15724e-05 0.309015 0
-0.309011 6.53688e-06 0
-0.29388 0.293897 0
-0.293895 -0.293885 0
-0.309011 6.53688e-06 0
-0.559018 -0.249991 0
-0.587779 7.93737e-06 0
-0.309011 6.53688e-06 0
-0.29388 0.293897 0
-0.587779 7.93737e-06 0
-0.559006 0.250006 0
-0.559018 -0.249991 0
-0.587779 7.93737e-06 0
-0.769421 -0.181629 0
-0.809012 5.25321e-06 0
-0.587779 7.93737e-06 0
-0.559006 0.250006 0
-0.809012 5.25321e-06 0
-0.769413 0.181639 0
-0.769421 -0.181629 0
-0.809012 5.25321e-06 0
-0.904508 -0.0954887 0
-0.951054 1.51597e-06 0
-0.809012 5.25321e-06 0
-0.769413 0.181639 0
-0.951054 1.51597e-06 0
-0.904505 0.0954916 0
-0.904508 -0.0954887 0
-0.951054 1.51597e-06 0
-0.951057 -3.78437e-17 0
-1 -3.46914e-32 0
-0.951054 1.51597e-06 0
-0.904505 0.0954916 0
-1 -3.46914e-32 0
-0.951057 3.78437e-17 0
0.951057 0 0
0.809017 0 0
0.904509 0.0954858 0
0.769422 0.181632 0
0.809017 0 0
0.587785 0 0
0.769422 0.181632 0
0.559018 0.25 0
0.904509 0.0954858 0
0.769422 0.181632 0
0.769423 0.181626 0
0.654513 0.345485 0
0.769422 0.181632 0
0.559018 0.25 0
0.654513 0.345485 0
0.475532 0.475526 0
0.769423 0.181626 0
0.654513 0.345485 0
0.559022 0.249989 0
0.475536 0.47552 0
0.654513 0.345485 0
0.475532 0.475526 0
0.475536 0.47552 0
0.345498 0.654505 0
0.559022 0.249989 0
0.475536 0.47552 0
0.293902 0.293884 0
0.250011 0.55901 0
0.475536 0.47552 0
0.345498 0.654505 0
0.250011 0.55901 0
0.181645 0.769417 0
0.293902 0.293884 0
0.250011 0.55901 0
1.15724e-05 0.309015 0
1.35167e-05 0.587782 0
0.250011 0.55901 0
0.181645 0.769417 0
1.35167e-05 0.587782 0
1.06802e-05 0.809014 0
1.15724e-05 0.309015 0
1.35167e-05 0.587782 0
-0.29388 0.293897 0
-0.249986 0.559019 0
1.35167e-05 0.587782 0
1.06802e-05 0.809014 0
-0.249986 0.559019 0
-0.181625 0.769421 0
-0.29388 0.293897 0
-0.249986 0.559019 0
-0.559006 0.250006 0
-0.475516 0.475532 0
-0.249986 0.559019 0
-0.181625 0.769421 0
-0.475516 0.475532 0
-0.345482 0.65451 0
-0.559006 0.250006 0
-0.475516 0.475532 0
-0.769413 0.181639 0
-0.6545 0.345493 0
-0.475516 0.475532 0
-0.345482 0.65451 0
-0.6545 0.345493 0
-0.475522 0.475528 0
-0.769413 0.181639 0
-0.6545 0.345493 0
-0.904505 0.0954916 0
-0.769417 0.181634 0
-0.6545 0.345493 0
-0.475522 0.475528 0
-0.769417 0.181634 0
-0.559014 0.249998 0
-0.904505 0.0954916 0
-0.769417 0.181634 0
-0.951057 3.78437e-17 0
-0.809017 7.19829e-17 0
-0.769417 0.181634 0
-0.559014 0.249998 0
-0.809017 7.19829e-17 0
-0.587785 9.9076e-17 0
0.587785 0 0
0.309017 0 0
0.559018 0.25 0
0.293893 0.293896 0
0.309017 0 0
1.22465e-16 0 0
0.293893 0.293896 0
1.16471e-16 0.309017 0
0.559018 0.25 0
0.293893 0.293896 0
0.475532 0.475526 0
0.250002 0.559019 0
0.293893 0.293896 0
1.16471e-16 0.309017 0
0.250002 0.559019 0
9.9076e-17 0.587785 0
0.475532 0.475526 0
0.250002 0.559019 0
0.345498 0.654505 0
0.181639 0.769421 0
0.250002 0.559019 0
9.9076e-17 0.587785 0
0.181639 0.769421 0
7.19829e-17 0.809017 0
0.345498 0.654505 0
0.181639 0.769421 0
0.181645 0.769417 0
0.0954963 0.904508 0
0.181639 0.769421 0
7.19829e-17 0.809017 0
0.0954963 0.904508 0
3.78437e-17 0.951057 0
0.181645 0.769417 0
0.0954963 0.904508 0
1.06802e-05 0.809014 0
5.75795e-06 0.951055 0
0.0954963 0.904508 0
3.78437e-17 0.951057 0
5.75795e-06 0.951055 0
7.4988e-33 1 0
1.06802e-05 0.809014 0
5.75795e-06 0.951055 0
-0.181625 0.769421 0
-0.0954854 0.904507 0
5.75795e-06 0.951055 0
7.4988e-33 1 0
-0.0954854 0.904507 0
-3.78437e-17 0.951057 0
-0.181625 0.769421 0
-0.0954854 0.904507 0
-0.345482 0.65451 0
-0.18163 0.76942 0
-0.0954854 0.904507 0
-3.78437e-17 0.951057 0
-0.18163 0.76942 0
-7.19829e-17 0.809017 0
-0.345482 0.65451 0
-0.18163 0.76942 0
-0.475522 0.475528 0
-0.249996 0.559016 0
-0.18163 0.76942 0
-7.19829e-17 0.809017 0
-0.249996 0.559016 0
-9.9076e-17 0.587785 0
-0.475522 0.475528 0
-0.249996 0.559016 0
-0.559014 0.249998 0
-0.293891 0.29389 0
-0.249996 0.559016 0
-9.9076e-17 0.587785 0
-0.293891 0.29389 0
-1.16471e-16 0.309017 0
-0.559014 0.249998 0
-0.293891 0.29389 0
-0.587785 9.9076e-17 0
-0.309017 1.16471e-16 0
-0.293891 0.29389 0
-1.16471e-16 0.309017 0
-0.309017 1.16471e-16 0
-1.22465e-16 1.22465e-16 0
VECTORS velocity_error double
0 0 0
0 0 0
0 0 0
9.81084e-08 5.94479e-06 0
0 0 0
0 0 0
9.81084e-08 5.94479e-06 0
2.81383e-08 7.58977e-06 0
0 0 0
9.81084e-08 5.94479e-06 0
0 0 0
2.41543e-07 6.36834e-06 0
9.81084e-08 5.94479e-06 0
2.81383e-08 7.58977e-06 0
2.41543e-07 6.36834e-06 0
1.15207e-06 9.2735e-06 0
0 0 0
2.41543e-07 6.36834e-06 0
0 0 0
1.46003e-06 4.50138e-06 0
2.41543e-07 6.36834e-06 0
1.15207e-06 9.2735e-06 0
1.46003e-06 4.50138e-06 0
3.25178e-06 7.2348e-06 0
0 0 0
1.46003e-06 4.50138e-06 0
0 0 0
2.38456e-06 1.66836e-06 0
1.46003e-06 4.50138e-06 0
3.25178e-06 7.2348e-06 0
2.38456e-06 1.66836e-06 0
4.86443e-06 2.58338e-06 0
0 0 0
2.38456e-06 1.66836e-06 0
0 0 0
2.90289e-06 -1.13891e-06 0
2.38456e-06 1.66836e-06 0
4.86443e-06 2.58338e-06 0
2.90289e-06 -1.13891e-06 0
5.5206e-06 -2.23547e-06 0
0 0 0
2.90289e-06 -1.13891e-06 0
0 0 0
3.18336e-06 -3.18399e-06 0
2.90289e-06 -1.13891e-06 0
5.5206e-06 -2.23547e-06 0
3.18336e-06 -3.18399e-06 0
5.61419e-06 -5.38976e-06 0
0 0 0
3.18336e-06 -3.18399e-06 0
0 0 0
3.45691e-06 -4.39497e-06 0
3.18336e-06 -3.18399e-06 0
5.61419e-06 -5.38976e-06 0
3.45691e-06 -4.39497e-06 0
5.53597e-06 -6.42295e-06 0
0 0 0
3.45691e-06 -4.39497e-06 0
0 0 0
3.59078e-06 -4.81454e-06 0
3.45691e-06 -4.39497e-06 0
5.53597e-06 -6.42295e-06 0
3.59078e-06 -4.81454e-06 0
5.26039e-06 -5.67472e-06 0
0 0 0
3.59078e-06 -4.81454e-06 0
0 0 0
3.04059e-06 -4.30614e-06 0
3.59078e-06 -4.81454e-06 0
5.26039e-06 -5.67472e-06 0
3.04059e-06 -4.30614e-06 0
3.57587e-06 -3.7094e-06 0
0 0 0
3.04059e-06 -4.30614e-06 0
0 0 0
0 0 0
3.04059e-06 -4.30614e-06 0
3.57587e-06 -3.7094e-06 0
0 0 0
0 0 0
0 0 0
0 0 0
2.81383e-08 7.58977e-06 0
7.66827e-08 8.11979e-06 0
0 0 0
0 0 0
7.66827e-08 8.11979e-06 0
3.65765e-08 7.91575e-06 0
2.81383e-08 7.58977e-06 0
7.66827e-08 8.11979e-06 0
1.15207e-06 9.2735e-06 0
1.61978e-06 1.06536e-05 0
7.66827e-08 8.11979e-06 0
3.65765e-08 7.91575e-06 0
1.61978e-06 1.06536e-05 0
1.2022e-06 1.12129e-05 0
1.15207e-06 9.2735e-06 0
1.61978e-06 1.06536e-05 0
3.25178e-06 7.2348e-06 0
3.83026e-06 9.8037e-06 0
1.61978e-06 1.06536e-05 0
1.2022e-06 1.12129e-05 0
3.83026e-06 9.8037e-06 0
2.61868e-06 1.15447e-05 0
3.25178e-06 7.2348e-06 0
3.83026e-06 9.8037e-06 0
4.86443e-06 2.58338e-06 0
5.68818e-06 4.60164e-06 0
3.83026e-06 9.8037e-06 0
2.61868e-06 1.15447e-05 0
5.68818e-06 4.60164e-06 0
3.44835e-06 6.99584e-06 0
4.86443e-06 2.58338e-06 0
5.68818e-06 4.60164e-06 0
5.5206e-06 -2.23547e-06 0
6.49116e-06 -2.3563e-06 0
5.68818e-06 4.60164e-06 0
3.44835e-06 6.99584e-06 0
6.49116e-06 -2.3563e-06 0
3.5266e-06 -1.22831e-06 0
5.5206e-06 -2.23547e-06 0
6.49116e-06 -2.3563e-06 0
5.61419e-06 -5.38976e-06 0
6.35085e-06 -7.0072e-06 0
6.49116e-06 -2.3563e-06 0
3.5266e-06 -1.22831e-06 0
6.35085e-06 -7.0072e-06 0
2.56815e-06 -7.35556e-06 0
5.61419e-06 -5.38976e-06 0
6.35085e-06 -7.0072e-06 0
5.53597e-06 -6.42295e-06 0
5.59117e-06 -8.04788e-06 0
6.35085e-06 -7.0072e-06 0
2.56815e-06 -7.35556e-06 0
5.59117e-06 -8.04788e-06 0
1.12537e-06 -8.65465e-06 0
5.53597e-06 -6.42295e-06 0
5.59117e-06 -8.04788e-06 0
5.26039e-06 -5.67472e-06 0
4.22901e-06 -6.50058e-06 0
5.59117e-06 -8.04788e-06 0
1.12537e-06 -8.65465e-06 0
4.22901e-06 -6.50058e-06 0
-7.32733e-09 -6.4485e-06 0
5.26039e-06 -5.67472e-06 0
4.22901e-06 -6.50058e-06 0
3.57587e-06 -3.7094e-06 0
2.18208e-06 -3.58892e-06 0
4.22901e-06 -6.50058e-06 0
-7.32733e-09 -6.4485e-06 0
2.18208e-06 -3.58892e-06 0
-3.13711e-07 -2.81584e-06 0
3.57587e-06 -3.7094e-06 0
2.18208e-06 -3.58892e-06 0
0 0 0
0 0 0
2.18208e-06 -3.58892e-06 0
-3.13711e-07 -2.81584e-06 0
0 0 0
0 0 0
0 0 0
0 0 0
3.65765e-08 7.91575e-06 0
-2.11433e-07 7.14625e-06 0
0 0 0
0 0 0
-2.11433e-07 7.14625e-06 0
-7.45368e-07 5.66167e-06 0
3.65765e-08 7.91575e-06 0
-2.11433e-07 7.14625e-06 0
1.2022e-06 1.12129e-05 0
-2.33148e-07 1.09518e-05 0
-2.11433e-07 7.14625e-06 0
-7.45368e-07 5.66167e-06 0
-2.33148e-07 1.09518e-05 0
-2.34111e-06 9.49524e-06 0
1.2022e-06 1.12129e-05 0
-2.33148e-07 1.09518e-05 0
2.61868e-06 1.15447e-05 0
-8.62464e-07 1.20761e-05 0
-2.33148e-07 1.09518e-05 0
-2.34111e-06 9.49524e-06 0
-8.62464e-07 1.20761e-05 0
-5.38246e-06 1.0936e-05 0
2.61868e-06 1.15447e-05 0
-8.62464e-07 1.20761e-05 0
3.44835e-06 6.99584e-06 0
-2.31942e-06 8.56076e-06 0
-8.62464e-07 1.20761e-05 0
-5.38246e-06 1.0936e-05 0
-2.31942e-06 8.56076e-06 0
-8.91394e-06 8.47797e-06 0
3.44835e-06 6.99584e-06 0
-2.31942e-06 8.56076e-06 0
3.5266e-06 -1.22831e-06 0
-4.08232e-06 4.53719e-07 0
-2.31942e-06 8.56076e-06 0
-8.91394e-06 8.47797e-06 0
-4.08232e-06 4.53719e-07 0
-1.15724e-05 2.04907e-06 0
3.5266e-06 -1.22831e-06 0
-4.08232e-06 4.53719e-07 0
2.56815e-06 -7.35556e-06 0
-5.60047e-06 -6.53688e-06 0
-4.08232e-06 4.53719e-07 0
-1.15724e-05 2.04907e-06 0
-5.60047e-06 -6.53688e-06 0
-1.23853e-05 -4.49582e-06 0
2.56815e-06 -7.35556e-06 0
-5.60047e-06 -6.53688e-06 0
1.12537e-06 -8.65465e-06 0
-6.05676e-06 -7.93737e-06 0
-5.60047e-06 -6.53688e-06 0
-1.23853e-05 -4.49582e-06 0
-6.05676e-06 -7.93737e-06 0
-1.11904e-05 -6.09535e-06 0
1.12537e-06 -8.65465e-06 0
-6.05676e-06 -7.93737e-06 0
-7.32733e-09 -6.4485e-06 0
-4.94525e-06 -5.25321e-06 0
-6.05676e-06 -7.93737e-06 0
-1.11904e-05 -6.09535e-06 0
-4.94525e-06 -5.25321e-06 0
-8.05268e-06 -3.43556e-06 0
-7.32733e-09 -6.4485e-06 0
-4.94525e-06 -5.25321e-06 0
-3.13711e-07 -2.81584e-06 0
-2.68332e-06 -1.51597e-06 0
-4.94525e-06 -5.25321e-06 0
-8.05268e-06 -3.43556e-06 0
-2.68332e-06 -1.51597e-06 0
-3.92977e-06 -4.82372e-08 0
-3.13711e-07 -2.81584e-06 0
-2.68332e-06 -1.51597e-06 0
0 0 0
0 0 0
-2.68332e-06 -1.51597e-06 0
-3.92977e-06 -4.82372e-08 0
0 0 0
0 0 0
0 0 0
0 0 0
-7.45368e-07 5.66167e-06 0
-1.21109e-06 3.30425e-06 0
0 0 0
0 0 0
-1.21109e-06 3.30425e-06 0
-1.30137e-06 3.12471e-07 0
-7.45368e-07 5.66167e-06 0
-1.21109e-06 3.30425e-06 0
-2.34111e-06 9.49524e-06 0
-4.03258e-06 6.41989e-06 0
-1.21109e-06 3.30425e-06 0
-1.30137e-06 3.12471e-07 0
-4.03258e-06 6.41989e-06 0
-3.96512e-06 2.12753e-06 0
-2.34111e-06 9.49524e-06 0
-4.03258e-06 6.41989e-06 0
-5.38246e-06 1.0936e-05 0
-7.82691e-06 7.88874e-06 0
-4.03258e-06 6.41989e-06 0
-3.96512e-06 2.12753e-06 0
-7.82691e-06 7.88874e-06 0
-6.65667e-06 3.67713e-06 0
-5.38246e-06 1.0936e-05 0
-7.82691e-06 7.88874e-06 0
-8.91394e-06 8.47797e-06 0
-1.12863e-05 6.79784e-06 0
-7.82691e-06 7.88874e-06 0
-6.65667e-06 3.67713e-06 0
-1.12863e-05 6.79784e-06 0
-9.02854e-06 3.8591e-06 0
-8.91394e-06 8.47797e-06 0
-1.12863e-05 6.79784e-06 0
-1.15724e-05 2.04907e-06 0
-1.35167e-05 2.83849e-06 0
-1.12863e-05 6.79784e-06 0
-9.02854e-06 3.8591e-06 0
-1.35167e-05 2.83849e-06 0
-1.06802e-05 2.47169e-06 0
-1.15724e-05 2.04907e-06 0
-1.35167e-05 2.83849e-06 0
-1.23853e-05 -4.49582e-06 0
-1.39056e-05 -1.90822e-06 0
-1.35167e-05 2.83849e-06 0
-1.06802e-05 2.47169e-06 0
-1.39056e-05 -1.90822e-06 0
-1.10747e-05 2.45972e-07 0
-1.23853e-05 -4.49582e-06 0
-1.39056e-05 -1.90822e-06 0
-1.11904e-05 -6.09535e-06 0
-1.21057e-05 -3.62261e-06 0
-1.39056e-05 -1.90822e-06 0
-1.10747e-05 2.45972e-07 0
-1.21057e-05 -3.62261e-06 0
-9.67439e-06 -1.02484e-06 0
-1.11904e-05 -6.09535e-06 0
-1.21057e-05 -3.62261e-06 0
-8.05268e-06 -3.43556e-06 0
-8.4905e-06 -1.54166e-06 0
-1.21057e-05 -3.62261e-06 0
-9.67439e-06 -1.02484e-06 0
-8.4905e-06 -1.54166e-06 0
-6.65958e-06 4.40907e-08 0
-8.05268e-06 -3.43556e-06 0
-8.4905e-06 -1.54166e-06 0
-3.92977e-06 -4.82372e-08 0
-3.97211e-06 1.18554e-06 0
-8.4905e-06 -1.54166e-06 0
-6.65958e-06 4.40907e-08 0
-3.97211e-06 1.18554e-06 0
-2.91321e-06 1.85115e-06 0
-3.92977e-06 -4.82372e-08 0
-3.97211e-06 1.18554e-06 0
0 0 0
0 0 0
-3.97211e-06 1.18554e-06 0
-2.91321e-06 1.85115e-06 0
0 0 0
0 0 0
0 0 0
0 0 0
-1.30137e-06 3.12471e-07 0
-6.81402e-07 -2.97106e-06 0
0 0 0
0 0 0
-6.81402e-07 -2.97106e-06 0
0 0 0
-1.30137e-06 3.12471e-07 0
-6.81402e-07 -2.97106e-06 0
-3.96512e-06 2.12753e-06 0
-2.14728e-06 -1.87403e-06 0
-6.81402e-07 -2.97106e-06 0
0 0 0
-2.14728e-06 -1.87403e-06 0
0 0 0
-3.96512e-06 2.12753e-06 0
-2.14728e-06 -1.87403e-06 0
-6.65667e-06 3.67713e-06 0
-3.47599e-06 -3.4389e-07 0
-2.14728e-06 -1.87403e-06 0
0 0 0
-3.47599e-06 -3.4389e-07 0
0 0 0
-6.65667e-06 3.67713e-06 0
-3.47599e-06 -3.4389e-07 0
-9.02854e-06 3.8591e-06 0
-4.78092e-06 7.86833e-07 0
-3.47599e-06 -3.4389e-07 0
0 0 0
-4.78092e-06 7.86833e-07 0
0 0 0
-9.02854e-06 3.8591e-06 0
-4.78092e-06 7.86833e-07 0
-1.06802e-05 2.47169e-06 0
-5.75795e-06 1.34144e-06 0
-4.78092e-06 7.86833e-07 0
0 0 0
-5.75795e-06 1.34144e-06 0
0 0 0
-1.06802e-05 2.47169e-06 0
-5.75795e-06 1.34144e-06 0
-1.10747e-05 2.45972e-07 0
-6.09579e-06 1.2482e-06 0
-5.75795e-06 1.34144e-06 0
0 0 0
-6.09579e-06 1.2482e-06 0
0 0 0
-1.10747e-05 2.45972e-07 0
-6.09579e-06 1.2482e-06 0
-9.67439e-06 -1.02484e-06 0
-5.43439e-06 1.11945e-06 0
-6.09579e-06 1.2482e-06 0
0 0 0
-5.43439e-06 1.11945e-06 0
0 0 0
-9.67439e-06 -1.02484e-06 0
-5.43439e-06 1.11945e-06 0
-6.65958e-06 4.40907e-08 0
-3.7856e-06 1.49644e-06 0
-5.43439e-06 1.11945e-06 0
0 0 0
-3.7856e-06 1.49644e-06 0
0 0 0
-6.65958e-06 4.40907e-08 0
-3.7856e-06 1.49644e-06 0
-2.91321e-06 1.85115e-06 0
-1.23695e-06 2.2194e-06 0
-3.7856e-06 1.49644e-06 0
0 0 0
-1.23695e-06 2.2194e-06 0
0 0 0
-2.91321e-06 1.85115e-06 0
-1.23695e-06 2.2194e-06 0
0 0 0
0 0 0
-1.23695e-06 2.2194e-06 0
0 0 0
0 0 0
0 0 0
SCALARS pressure double 1
LOOKUP_TABLE default
-0.000817832 -0.000423635 0.308913 0.293858 -0.000423635 -0.000304651 0.293858 0.249978 0.308913 0.293858 0.587837 0.559079 0.293858 0.249978 0.559079 0.475581 0.587837 0.559079 0.809121 0.769524 0.559079 0.475581 0.769524 0.654597 0.809121 0.769524 0.951188 0.904633 0.769524 0.654597 0.904633 0.769528 0.951188 0.904633 1.00014 0.951193 0.904633 0.769528 0.951193 0.809134 1.00014 0.951193 0.951195 0.904635 0.951193 0.809134 0.904635 0.76953 0.951195 0.904635 0.809132 0.76953 0.904635 0.76953 0.76953 0.654601 0.809132 0.76953 0.587847 0.559082 0.76953 0.654601 0.559082 0.475585 0.587847 0.559082 0.308915 0.29386 0.559082 0.475585 0.29386 0.24998 0.308915 0.29386 -0.000831234 -0.000426051 0.29386 0.24998 -0.000426051 -0.000307966 -0.000304651 -0.000214803 0.249978 0.181621 -0.000214803 -0.000112357 0.181621 0.0954789 0.249978 0.181621 0.475581 0.34553 0.181621 0.0954789 0.34553 0.181653 0.475581 0.34553 0.654597 0.475593 0.34553 0.181653 0.475593 0.250034 0.654597 0.475593 0.769528 0.559097 0.475593 0.250034 0.559097 0.293938 0.769528 0.559097 0.809134 0.587874 0.559097 0.293938 0.587874 0.309067 0.809134 0.587874 0.76953 0.5591 0.587874 0.309067 0.5591 0.29394 0.76953 0.5591 0.654601 0.475598 0.5591 0.29394 0.475598 0.250037 0.654601 0.475598 0.475585 0.345534 0.475598 0.250037 0.345534 0.181656 0.475585 0.345534 0.24998 0.181622 0.345534 0.181656 0.181622 0.09548 0.24998 0.181622 -0.000307966 -0.000218441 0.181622 0.09548 -0.000218441 -0.000116176 -0.000112357 -4.9534e-06 0.0954789 -4.96204e-06 -4.9534e-06 0.000105714 -4.96204e-06 -0.0954948 0.0954789 -4.96204e-06 0.181653 -3.71706e-06 -4.96204e-06 -0.0954948 -3.71706e-06 -0.181666 0.181653 -3.71706e-06 0.250034 -4.60532e-07 -3.71706e-06 -0.181666 -4.60532e-07 -0.250039 0.250034 -4.60532e-07 0.293938 3.33777e-06 -4.60532e-07 -0.250039 3.33777e-06 -0.293934 0.293938 3.33777e-06 0.309067 6.31226e-06 3.33777e-06 -0.293934 6.31226e-06 -0.309058 0.309067 6.31226e-06 0.29394 5.86758e-06 6.31226e-06 -0.309058 5.86758e-06 -0.293932 0.29394 5.86758e-06 0.250037 3.7996e-06 5.86758e-06 -0.293932 3.7996e-06 -0.250035 0.250037 3.7996e-06 0.181656 4.74129e-07 3.7996e-06 -0.250035 4.74129e-07 -0.181662 0.181656 4.74129e-07 0.09548 -2.50253e-06 4.74129e-07 -0.181662 -2.50253e-06 -0.0954931 0.09548 -2.50253e-06 -0.000116176 -7.90225e-06 -2.50253e-06 -0.0954931 -7.90225e-06 0.000105012 0.000105714 0.00020485 -0.0954948 -0.181632 0.00020485 0.000295867 -0.181632 -0.249992 -0.0954948 -0.181632 -0.181666 -0.345543 -0.181632 -0.249992 -0.345543 -0.475598 -0.181666 -0.345543 -0.250039 -0.475601 -0.345543 -0.475598 -0.475601 -0.654609 -0.250039 -0.475601 -0.293934 -0.559101 -0.475601 -0.654609 -0.559101 -0.76954 -0.293934 -0.559101 -0.309058 -0.58787 -0.559101 -0.76954 -0.58787 -0.809138 -0.309058 -0.58787 -0.293932 -0.559099 -0.58787 -0.809138 -0.559099 -0.769538 -0.293932 -0.559099 -0.250035 -0.475597 -0.559099 -0.769538 -0.475597 -0.654606 -0.250035 -0.475597 -0.181662 -0.345538 -0.475597 -0.654606 -0.345538 -0.475595 -0.181662 -0.345538 -0.0954931 -0.181629 -0.345538 -0.475595 -0.181629 -0.24999 -0.0954931 -0.181629 0.000105012 0.000204912 -0.181629 -0.24999 0.000204912 0.000298846 0.000295867 0.000418061 -0.249992 -0.293869 0.000418061 0.000844836 -0.293869 -0.308918 -0.249992 -0.293869 -0.475598 -0.559095 -0.293869 -0.308918 -0.559095 -0.587853 -0.475598 -0.559095 -0.654609 -0.769539 -0.559095 -0.587853 -0.769539 -0.809141 -0.654609 -0.769539 -0.76954 -0.90465 -0.769539 -0.809141 -0.90465 -0.951203 -0.76954 -0.90465 -0.809138 -0.9512 -0.90465 -0.951203 -0.9512 -1.00015 -0.809138 -0.9512 -0.769538 -0.904647 -0.9512 -1.00015 -0.904647 -0.951199 -0.769538 -0.904647 -0.654606 -0.769534 -0.904647 -0.951199 -0.769534 -0.809135 -0.654606 -0.769534 -0.475595 -0.559091 -0.769534 -0.809135 -0.559091 -0.587849 -0.475595 -0.559091 -0.24999 -0.293867 -0.559091 -0.587849 -0.293867 -0.308921 -0.24999 -0.293867 0.000298846 0.000421134 -0.293867 -0.308921 0.000421134 0.000831435 
SCALARS pressure_error double 1
LOOKUP_TABLE default