# vtk DataFile Version 3.0
#This file was generated by the deal.II library on 2026/6/6 at 13:03:24
ASCII
DATASET UNSTRUCTURED_GRID

POINTS 400 double
0 0 0
0.1 0 0
0 0.1 0
0.1 0.1 0
0.1 0 0
0.2 0 0
0.1 0.1 0
0.2 0.1 0
0 0.1 0
0.1 0.1 0
0 0.2 0
0.1 0.2 0
0.1 0.1 0
0.2 0.1 0
0.1 0.2 0
0.2 0.2 0
0 0.2 0
0.1 0.2 0
0 0.3 0
0.1 0.3 0
0.1 0.2 0
0.2 0.2 0
0.1 0.3 0
0.2 0.3 0
0 0.3 0
0.1 0.3 0
0 0.4 0
0.1 0.4 0
0.1 0.3 0
0.2 0.3 0
0.1 0.4 0
0.2 0.4 0
0 0.4 0
0.1 0.4 0
0 0.5 0
0.1 0.5 0
0.1 0.4 0
0.2 0.4 0
0.1 0.5 0
0.2 0.5 0
0 0.5 0
0.1 0.5 0
0 0.6 0
0.1 0.6 0
0.1 0.5 0
0.2 0.5 0
0.1 0.6 0
0.2 0.6 0
0 0.6 0
0.1 0.6 0
0 0.7 0
0.1 0.7 0
0.1 0.6 0
0.2 0.6 0
0.1 0.7 0
0.2 0.7 0
0 0.7 0
0.1 0.7 0
0 0.8 0
0.1 0.8 0
0.1 0.7 0
0.2 0.7 0
0.1 0.8 0
0.2 0.8 0
0 0.8 0
0.1 0.8 0
0 0.9 0
0.1 0.9 0
0.1 0.8 0
0.2 0.8 0
0.1 0.9 0
0.2 0.9 0
0 0.9 0
0.1 0.9 0
0 1 0
0.1 1 0
0.1 0.9 0
0.2 0.9 0
0.1 1 0
0.2 1 0
0.2 0 0
0.3 0 0
0.2 0.1 0
0.3 0.1 0
0.3 0 0
0.4 0 0
0.3 0.1 0
0.4 0.1 0
0.2 0.1 0
0.3 0.1 0
0.2 0.2 0
0.3 0.2 0
0.3 0.1 0
0.4 0.1 0
0.3 0.2 0
0.4 0.2 0
0.2 0.2 0
0.3 0.2 0
0.2 0.3 0
0.3 0.3 0
0.3 0.2 0
0.4 0.2 0
0.3 0.3 0
0.4 0.3 0
0.2 0.3 0
0.3 0.3 0
0.2 0.4 0
0.3 0.4 0
0.3 0.3 0
0.4 0.3 0
0.3 0.4 0
0.4 0.4 0
0.2 0.4 0
0.3 0.4 0
0.2 0.5 0
0.3 0.5 0
0.3 0.4 0
0.4 0.4 0
0.3 0.5 0
0.4 0.5 0
0.2 0.5 0
0.3 0.5 0
0.2 0.6 0
0.3 0.6 0
0.3 0.5 0
0.4 0.5 0
0.3 0.6 0
0.4 0.6 0
0.2 0.6 0
0.3 0.6 0
0.2 0.7 0
0.3 0.7 0
0.3 0.6 0
0.4 0.6 0
0.3 0.7 0
0.4 0.7 0
0.2 0.7 0
0.3 0.7 0
0.2 0.8 0
0.3 0.8 0
0.3 0.7 0
0.4 0.7 0
0.3 0.8 0
0.4 0.8 0
0.2 0.8 0
0.3 0.8 0
0.2 0.9 0
0.3 0.9 0
0.3 0.8 0
0.4 0.8 0
0.3 0.9 0
0.4 0.9 0
0.2 0.9 0
0.3 0.9 0
0.2 1 0
0.3 1 0
0.3 0.9 0
0.4 0.9 0
0.3 1 0
0.4 1 0
0.4 0 0
0.5 0 0
0.4 0.1 0
0.5 0.1 0
0.5 0 0
0.6 0 0
0.5 0.1 0
0.6 0.1 0
0.4 0.1 0
0.5 0.1 0
0.4 0.2 0
0.5 0.2 0
0.5 0.1 0
0.6 0.1 0
0.5 0.2 0
0.6 0.2 0
0.4 0.2 0
0.5 0.2 0
0.4 0.3 0
0.5 0.3 0
0.5 0.2 0
0.6 0.2 0
0.5 0.3 0
0.6 0.3 0
0.4 0.3 0
0.5 0.3 0
0.4 0.4 0
0.5 0.4 0
0.5 0.3 0
0.6 0.3 0
0.5 0.4 0
0.6 0.4 0
0.4 0.4 0
0.5 0.4 0
0.4 0.5 0
0.5 0.5 0
0.5 0.4 0
0.6 0.4 0
0.5 0.5 0
0.6 0.5 0
0.4 0.5 0
0.5 0.5 0
0.4 0.6 0
0.5 0.6 0
0.5 0.5 0
0.6 0.5 0
0.5 0.6 0
0.6 0.6 0
0.4 0.6 0
0.5 0.6 0
0.4 0.7 0
0.5 0.7 0
0.5 0.6 0
0.6 0.6 0
0.5 0.7 0
0.6 0.7 0
0.4 0.7 0
0.5 0.7 0
0.4 0.8 0
0.5 0.8 0
0.5 0.7 0
0.6 0.7 0
0.5 0.8 0
0.6 0.8 0
0.4 0.8 0
0.5 0.8 0
0.4 0.9 0
0.5 0.9 0
0.5 0.8 0
0.6 0.8 0
0.5 0.9 0
0.6 0.9 0
0.4 0.9 0
0.5 0.9 0
0.4 1 0
0.5 1 0
0.5 0.9 0
0.6 0.9 0
0.5 1 0
0.6 1 0
0.6 0 0
0.7 0 0
0.6 0.1 0
0.7 0.1 0
0.7 0 0
0.8 0 0
0.7 0.1 0
0.8 0.1 0
0.6 0.1 0
0.7 0.1 0
0.6 0.2 0
0.7 0.2 0
0.7 0.1 0
0.8 0.1 0
0.7 0.2 0
0.8 0.2 0
0.6 0.2 0
0.7 0.2 0
0.6 0.3 0
0.7 0.3 0
0.7 0.2 0
0.8 0.2 0
0.7 0.3 0
0.8 0.3 0
0.6 0.3 0
0.7 0.3 0
0.6 0.4 0
0.7 0.4 0
0.7 0.3 0
0.8 0.3 0
0.7 0.4 0
0.8 0.4 0
0.6 0.4 0
0.7 0.4 0
0.6 0.5 0
0.7 0.5 0
0.7 0.4 0
0.8 0.4 0
0.7 0.5 0
0.8 0.5 0
0.6 0.5 0
0.7 0.5 0
0.6 0.6 0
0.7 0.6 0
0.7 0.5 0
0.8 0.5 0
0.7 0.6 0
0.8 0.6 0
0.6 0.6 0
0.7 0.6 0
0.6 0.7 0
0.7 0.7 0
0.7 0.6 0
0.8 0.6 0
0.7 0.7 0
0.8 0.7 0
0.6 0.7 0
0.7 0.7 0
0.6 0.8 0
0.7 0.8 0
0.7 0.7 0
0.8 0.7 0
0.7 0.8 0
0.8 0.8 0
0.6 0.8 0
0.7 0.8 0
0.6 0.9 0
0.7 0.9 0
0.7 0.8 0
0.8 0.8 0
0.7 0.9 0
0.8 0.9 0
0.6 0.9 0
0.7 0.9 0
0.6 1 0
0.7 1 0
0.7 0.9 0
0.8 0.9 0
0.7 1 0
0.8 1 0
0.8 0 0
0.9 0 0
0.8 0.1 0
0.9 0.1 0
0.9 0 0
1 0 0
0.9 0.1 0
1 0.1 0
0.8 0.1 0
0.9 0.1 0
0.8 0.2 0
0.9 0.2 0
0.9 0.1 0
1 0.1 0
0.9 0.2 0
1 0.2 0
0.8 0.2 0
0.9 0.2 0
0.8 0.3 0
0.9 0.3 0
0.9 0.2 0
1 0.2 0
0.9 0.3 0
1 0.3 0
0.8 0.3 0
0.9 0.3 0
0.8 0.4 0
0.9 0.4 0
0.9 0.3 0
1 0.3 0
0.9 0.4 0
1 0.4 0
0.8 0.4 0
0.9 0.4 0
0.8 0.5 0
0.9 0.5 0
0.9 0.4 0
1 0.4 0
0.9 0.5 0
1 0.5 0
0.8 0.5 0
0.9 0.5 0
0.8 0.6 0
0.9 0.6 0
0.9 0.5 0
1 0.5 0
0.9 0.6 0
1 0.6 0
0.8 0.6 0
0.9 0.6 0
0.8 0.7 0
0.9 0.7 0
0.9 0.6 0
1 0.6 0
0.9 0.7 0
1 0.7 0
0.8 0.7 0
0.9 0.7 0
0.8 0.8 0
0.9 0.8 0
0.9 0.7 0
1 0.7 0
0.9 0.8 0
1 0.8 0
0.8 0.8 0
0.9 0.8 0
0.8 0.9 0
0.9 0.9 0
0.9 0.8 0
1 0.8 0
0.9 0.9 0
1 0.9 0
0.8 0.9 0
0.9 0.9 0
0.8 1 0
0.9 1 0
0.9 0.9 0
1 0.9 0
0.9 1 0
1 1 0

CELLS 100 500
4	0	1	3	2
4	4	5	7	6
4	8	9	11	10
4	12	13	15	14
4	16	17	19	18
4	20	21	23	22
4	24	25	27	26
4	28	29	31	30
4	32	33	35	34
4	36	37	39	38
4	40	41	43	42
4	44	45	47	46
4	48	49	51	50
4	52	53	55	54
4	56	57	59	58
4	60	61	63	62
4	64	65	67	66
4	68	69	71	70
4	72	73	75	74
4	76	77	79	78
4	80	81	83	82
4	84	85	87	86
4	88	89	91	90
4	92	93	95	94
4	96	97	99	98
4	100	101	103	102
4	104	105	107	106
4	108	109	111	110
4	112	113	115	114
4	116	117	119	118
4	120	121	123	122
4	124	125	127	126
4	128	129	131	130
4	132	133	135	134
4	136	137	139	138
4	140	141	143	142
4	144	145	147	146
4	148	149	151	150
4	152	153	155	154
4	156	157	159	158
4	160	161	163	162
4	164	165	167	166
4	168	169	171	170
4	172	173	175	174
4	176	177	179	178
4	180	181	183	182
4	184	185	187	186
4	188	189	191	190
4	192	193	195	194
4	196	197	199	198
4	200	201	203	202
4	204	205	207	206
4	208	209	211	210
4	212	213	215	214
4	216	217	219	218
4	220	221	223	222
4	224	225	227	226
4	228	229	231	230
4	232	233	235	234
4	236	237	239	238
4	240	241	243	242
4	244	245	247	246
4	248	249	251	250
4	252	253	255	254
4	256	257	259	258
4	260	261	263	262
4	264	265	267	266
4	268	269	271	270
4	272	273	275	274
4	276	277	279	278
4	280	281	283	282
4	284	285	287	286
4	288	289	291	290
4	292	293	295	294
4	296	297	299	298
4	300	301	303	302
4	304	305	307	306
4	308	309	311	310
4	312	313	315	314
4	316	317	319	318
4	320	321	323	322
4	324	325	327	326
4	328	329	331	330
4	332	333	335	334
4	336	337	339	338
4	340	341	343	342
4	344	345	347	346
4	348	349	351	350
4	352	353	355	354
4	356	357	359	358
4	360	361	363	362
4	364	365	367	366
4	368	369	371	370
4	372	373	375	374
4	376	377	379	378
4	380	381	383	382
4	384	385	387	386
4	388	389	391	390
4	392	393	395	394
4	396	397	399	398

CELL_TYPES 100
 9 9 9 9 9 9 9 9 9 9 9 9 9 9 9 9 9 9 9 9 9 9 9 9 9 9 9 9 9 9 9 9 9 9 9 9 9 9 9 9 9 9 9 9 9 9 9 9 9 9 9 9 9 9 9 9 9 9 9 9 9 9 9 9 9 9 9 9 9 9 9 9 9 9 9 9 9 9 9 9 9 9 9 9 9 9 9 9 9 9 9 9 9 9 9 9 9 9 9 9
POINT_DATA 400
VECTORS velocity double
0 0 0
0.309017 0 0
0 -0.309017 0
0.293893 -0.293893 0
0.309017 0 0
0.587785 0 0
0.293893 -0.293893 0
0.559017 -0.25 0
0 -0.309017 0
0.293893 -0.293893 0
0 -0.587785 0
0.25 -0.559017 0
0.293893 -0.293893 0
0.559017 -0.25 0
0.25 -0.559017 0
0.475528 -0.475528 0
0 -0.587785 0
0.25 -0.559017 0
0 -0.809017 0
0.181636 -0.769421 0
0.25 -0.559017 0
0.475528 -0.475528 0
0.181636 -0.769421 0
0.345491 -0.654508 0
0 -0.809017 0
0.181636 -0.769421 0
0 -0.951057 0
0.0954915 -0.904508 0
0.181636 -0.769421 0
0.345491 -0.654508 0
0.0954915 -0.904508 0
0.181636 -0.769421 0
0 -0.951057 0
0.0954915 -0.904508 0
0 -1 0
-2.31414e-09 -0.951056 0
0.0954915 -0.904508 0
0.181636 -0.769421 0
-2.31414e-09 -0.951056 0
-7.51742e-09 -0.809017 0
0 -1 0
-2.31414e-09 -0.951056 0
0 -0.951057 0
-0.0954915 -0.904508 0
-2.31414e-09 -0.951056 0
-7.51742e-09 -0.809017 0
-0.0954915 -0.904508 0
-0.181636 -0.769421 0
0 -0.951057 0
-0.0954915 -0.904508 0
0 -0.809017 0
-0.181636 -0.769421 0
-0.0954915 -0.904508 0
-0.181636 -0.769421 0
-0.181636 -0.769421 0
-0.345491 -0.654508 0
0 -0.809017 0
-0.181636 -0.769421 0
0 -0.587785 0
-0.25 -0.559017 0
-0.181636 -0.769421 0
-0.345491 -0.654508 0
-0.25 -0.559017 0
-0.475528 -0.475528 0
0 -0.587785 0
-0.25 -0.559017 0
0 -0.309017 0
-0.293893 -0.293893 0
-0.25 -0.559017 0
-0.475528 -0.475528 0
-0.293893 -0.293893 0
-0.559017 -0.25 0
0 -0.309017 0
-0.293893 -0.293893 0
0 -1.22465e-16 0
-0.309017 -1.16471e-16 0
-0.293893 -0.293893 0
-0.559017 -0.25 0
-0.309017 -1.16471e-16 0
-0.587785 -9.9076e-17 0
0.587785 0 0
0.809017 0 0
0.559017 -0.25 0
0.769421 -0.181636 0
0.809017 0 0
0.951057 0 0
0.769421 -0.181636 0
0.904508 -0.0954915 0
0.559017 -0.25 0
0.769421 -0.181636 0
0.475528 -0.475528 0
0.654508 -0.345491 0
0.769421 -0.181636 0
0.904508 -0.0954915 0
0.654508 -0.345491 0
0.769421 -0.181636 0
0.475528 -0.475528 0
0.654508 -0.345491 0
0.345491 -0.654508 0
0.475528 -0.475528 0
0.654508 -0.345491 0
0.769421 -0.181636 0
0.475528 -0.475528 0
0.559017 -0.25 0
0.345491 -0.654508 0
0.475528 -0.475528 0
0.181636 -0.769421 0
0.25 -0.559017 0
0.475528 -0.475528 0
0.559017 -0.25 0
0.25 -0.559017 0
0.293893 -0.293893 0
0.181636 -0.769421 0
0.25 -0.559017 0
-7.51742e-09 -0.809017 0
-1.01173e-08 -0.587785 0
0.25 -0.559017 0
0.293893 -0.293893 0
-1.01173e-08 -0.587785 0
-3.58822e-09 -0.309017 0
-7.51742e-09 -0.809017 0
-1.01173e-08 -0.587785 0
-0.181636 -0.769421 0
-0.25 -0.559017 0
-1.01173e-08 -0.587785 0
-3.58822e-09 -0.309017 0
-0.25 -0.559017 0
-0.293893 -0.293893 0
-0.181636 -0.769421 0
-0.25 -0.559017 0
-0.345491 -0.654508 0
-0.475528 -0.475528 0
-0.25 -0.559017 0
-0.293893 -0.293893 0
-0.475528 -0.475528 0
-0.559017 -0.25 0
-0.345491 -0.654508 0
-0.475528 -0.475528 0
-0.475528 -0.475528 0
-0.654508 -0.345491 0
-0.475528 -0.475528 0
-0.559017 -0.25 0
-0.654508 -0.345491 0
-0.769421 -0.181636 0
-0.475528 -0.475528 0
-0.654508 -0.345491 0
-0.559017 -0.25 0
-0.769421 -0.181636 0
-0.654508 -0.345491 0
-0.769421 -0.181636 0
-0.769421 -0.181636 0
-0.904508 -0.0954915 0
-0.559017 -0.25 0
-0.769421 -0.181636 0
-0.587785 -9.9076e-17 0
-0.809017 -7.19829e-17 0
-0.769421 -0.181636 0
-0.904508 -0.0954915 0
-0.809017 -7.19829e-17 0
-0.951057 -3.78437e-17 0
0.951057 0 0
1 0 0
0.904508 -0.0954915 0
0.951056 3.65792e-09 0
1 0 0
0.951057 0 0
0.951056 3.65792e-09 0
0.904508 0.0954915 0
0.904508 -0.0954915 0
0.951056 3.65792e-09 0
0.769421 -0.181636 0
0.809017 5.22199e-09 0
0.951056 3.65792e-09 0
0.904508 0.0954915 0
0.809017 5.22199e-09 0
0.769421 0.181636 0
0.769421 -0.181636 0
0.809017 5.22199e-09 0
0.559017 -0.25 0
0.587785 4.43743e-09 0
0.809017 5.22199e-09 0
0.769421 0.181636 0
0.587785 4.43743e-09 0
0.559017 0.25 0
0.559017 -0.25 0
0.587785 4.43743e-09 0
0.293893 -0.293893 0
0.309017 3.43498e-09 0
0.587785 4.43743e-09 0
0.559017 0.25 0
0.309017 3.43498e-09 0
0.293893 0.293893 0
0.293893 -0.293893 0
0.309017 3.43498e-09 0
-3.58822e-09 -0.309017 0
5.41409e-09 4.9382e-09 0
0.309017 3.43498e-09 0
0.293893 0.293893 0
5.41409e-09 4.9382e-09 0
-2.86218e-09 0.309017 0
-3.58822e-09 -0.309017 0
5.41409e-09 4.9382e-09 0
-0.293893 -0.293893 0
-0.309017 4.16151e-09 0
5.41409e-09 4.9382e-09 0
-2.86218e-09 0.309017 0
-0.309017 4.16151e-09 0
-0.293893 0.293893 0
-0.293893 -0.293893 0
-0.309017 4.16151e-09 0
-0.559017 -0.25 0
-0.587785 -2.69674e-09 0
-0.309017 4.16151e-09 0
-0.293893 0.293893 0
-0.587785 -2.69674e-09 0
-0.559017 0.25 0
-0.559017 -0.25 0
-0.587785 -2.69674e-09 0
-0.769421 -0.181636 0
-0.809017 -9.61689e-09 0
-0.587785 -2.69674e-09 0
-0.559017 0.25 0
-0.809017 -9.61689e-09 0
-0.769421 0.181636 0
-0.769421 -0.181636 0
-0.809017 -9.61689e-09 0
-0.904508 -0.0954915 0
-0.951056 -1.07657e-08 0
-0.809017 -9.61689e-09 0
-0.769421 0.181636 0
-0.951056 -1.07657e-08 0
-0.904508 0.0954915 0
-0.904508 -0.0954915 0
-0.951056 -1.07657e-08 0
-0.951057 -3.78437e-17 0
-1 -3.46914e-32 0
-0.951056 -1.07657e-08 0
-0.904508 0.0954915 0
-1 -3.46914e-32 0
-0.951057 3.78437e-17 0
0.951057 0 0
0.809017 0 0
0.904508 0.0954915 0
0.769421 0.181636 0
0.809017 0 0
0.587785 0 0
0.769421 0.181636 0
0.559017 0.25 0
0.904508 0.0954915 0
0.769421 0.181636 0
0.769421 0.181636 0
0.654508 0.345491 0
0.769421 0.181636 0
0.559017 0.25 0
0.654508 0.345491 0
0.475528 0.475528 0
0.769421 0.181636 0
0.654508 0.345491 0
0.559017 0.25 0
0.475528 0.475528 0
0.654508 0.345491 0
0.475528 0.475528 0
0.475528 0.475528 0
0.345491 0.654508 0
0.559017 0.25 0
0.475528 0.475528 0
0.293893 0.293893 0
0.25 0.559017 0
0.475528 0.475528 0
0.345491 0.654508 0
0.25 0.559017 0
0.181636 0.769421 0
0.293893 0.293893 0
0.25 0.559017 0
-2.86218e-09 0.309017 0
-1.72519e-08 0.587785 0
0.25 0.559017 0
0.181636 0.769421 0
-1.72519e-08 0.587785 0
-2.2356e-08 0.809017 0
-2.86218e-09 0.309017 0
-1.72519e-08 0.587785 0
-0.293893 0.293893 0
-0.25 0.559017 0
-1.72519e-08 0.587785 0
-2.2356e-08 0.809017 0
-0.25 0.559017 0
-0.181636 0.769421 0
-0.293893 0.293893 0
-0.25 0.559017 0
-0.559017 0.25 0
-0.475528 0.475528 0
-0.25 0.559017 0
-0.181636 0.769421 0
-0.475528 0.475528 0
-0.345491 0.654508 0
-0.559017 0.25 0
-0.475528 0.475528 0
-0.769421 0.181636 0
-0.654508 0.345491 0
-0.475528 0.475528 0
-0.345491 0.654508 0
-0.654508 0.345491 0
-0.475528 0.475528 0
-0.769421 0.181636 0
-0.654508 0.345491 0
-0.904508 0.0954915 0
-0.769421 0.181636 0
-0.654508 0.345491 0
-0.475528 0.475528 0
-0.769421 0.181636 0
-0.559017 0.25 0
-0.904508 0.0954915 0
-0.769421 0.181636 0
-0.951057 3.78437e-17 0
-0.809017 7.19829e-17 0
-0.769421 0.181636 0
-0.559017 0.25 0
-0.809017 7.19829e-17 0
-0.587785 9.9076e-17 0
0.587785 0 0
0.309017 0 0
0.559017 0.25 0
0.293893 0.293893 0
0.309017 0 0
1.22465e-16 0 0
0.293893 0.293893 0
1.16471e-16 0.309017 0
0.559017 0.25 0
0.293893 0.293893 0
0.475528 0.475528 0
0.25 0.559017 0
0.293893 0.293893 0
1.16471e-16 0.309017 0
0.25 0.559017 0
9.9076e-17 0.587785 0
0.475528 0.475528 0
0.25 0.559017 0
0.345491 0.654508 0
0.181636 0.769421 0
0.25 0.559017 0
9.9076e-17 0.587785 0
0.181636 0.769421 0
7.19829e-17 0.809017 0
0.345491 0.654508 0
0.181636 0.769421 0
0.181636 0.769421 0
0.0954915 0.904508 0
0.181636 0.769421 0
7.19829e-17 0.809017 0
0.0954915 0.904508 0
3.78437e-17 0.951057 0
0.181636 0.769421 0
0.0954915 0.904508 0
-2.2356e-08 0.809017 0
-1.67374e-08 0.951056 0
0.0954915 0.904508 0
3.78437e-17 0.951057 0
-1.67374e-08 0.951056 0
7.4988e-33 1 0
-2.2356e-08 0.809017 0
-1.67374e-08 0.951056 0
-0.181636 0.769421 0
-0.0954915 0.904508 0
-1.67374e-08 0.951056 0
7.4988e-33 1 0
-0.0954915 0.904508 0
-3.78437e-17 0.951057 0
-0.181636 0.769421 0
-0.0954915 0.904508 0
-0.345491 0.654508 0
-0.181636 0.769421 0
-0.0954915 0.904508 0
-3.78437e-17 0.951057 0
-0.181636 0.769421 0
-7.19829e-17 0.809017 0
-0.345491 0.654508 0
-0.181636 0.769421 0
-0.475528 0.475528 0
-0.25 0.559017 0
-0.181636 0.769421 0
-7.19829e-17 0.809017 0
-0.25 0.559017 0
-9.9076e-17 0.587785 0
-0.475528 0.475528 0
-0.25 0.559017 0
-0.559017 0.25 0
-0.293893 0.293893 0
-0.25 0.559017 0
-9.9076e-17 0.587785 0
-0.293893 0.293893 0
-1.16471e-16 0.309017 0
-0.559017 0.25 0
-0.293893 0.293893 0
-0.587785 9.9076e-17 0
-0.309017 1.16471e-16 0
-0.293893 0.293893 0
-1.16471e-16 0.309017 0
-0.309017 1.16471e-16 0
-1.22465e-16 1.22465e-16 0
VECTORS velocity_error double
0 0 0
0 0 0
0 0 0
3.09126e-08 -1.41627e-09 0
0 0 0
0 0 0
3.09126e-08 -1.41627e-09 0
3.81516e-08 -2.18039e-08 0
0 0 0
3.09126e-08 -1.41627e-09 0
0 0 0
1.42161e-08 8.08022e-09 0
3.09126e-08 -1.41627e-09 0
3.81516e-08 -2.18039e-08 0
1.42161e-08 8.08022e-09 0
3.61379e-08 -2.86386e-08 0
0 0 0
1.42161e-08 8.08022e-09 0
0 0 0
1.04175e-08 1.08441e-08 0
1.42161e-08 8.08022e-09 0
3.61379e-08 -2.86386e-08 0
1.04175e-08 1.08441e-08 0
3.32007e-08 -1.87474e-08 0
0 0 0
1.04175e-08 1.08441e-08 0
0 0 0
8.05741e-09 2.46521e-10 0
1.04175e-08 1.08441e-08 0
3.32007e-08 -1.87474e-08 0
8.05741e-09 2.46521e-10 0
2.22352e-08 -1.06875e-08 0
0 0 0
8.05741e-09 2.46521e-10 0
0 0 0
2.31414e-09 -1.65851e-08 0
8.05741e-09 2.46521e-10 0
2.22352e-08 -1.06875e-08 0
2.31414e-09 -1.65851e-08 0
7.51742e-09 -2.00214e-08 0
0 0 0
2.31414e-09 -1.65851e-08 0
0 0 0
-4.17954e-09 -2.92034e-08 0
2.31414e-09 -1.65851e-08 0
7.51742e-09 -2.00214e-08 0
-4.17954e-09 -2.92034e-08 0
-7.45179e-09 -3.35085e-08 0
0 0 0
-4.17954e-09 -2.92034e-08 0
0 0 0
-8.62921e-09 -3.30787e-08 0
-4.17954e-09 -2.92034e-08 0
-7.45179e-09 -3.35085e-08 0
-8.62921e-09 -3.30787e-08 0
-1.7616e-08 -3.55124e-08 0
0 0 0
-8.62921e-09 -3.30787e-08 0
0 0 0
-8.23213e-09 -2.88759e-08 0
-8.62921e-09 -3.30787e-08 0
-1.7616e-08 -3.55124e-08 0
-8.23213e-09 -2.88759e-08 0
-1.57303e-08 -2.34283e-08 0
0 0 0
-8.23213e-09 -2.88759e-08 0
0 0 0
-2.57751e-09 -2.01221e-08 0
-8.23213e-09 -2.88759e-08 0
-1.57303e-08 -2.34283e-08 0
-2.57751e-09 -2.01221e-08 0
4.42976e-09 -4.31552e-09 0
0 0 0
-2.57751e-09 -2.01221e-08 0
0 0 0
0 0 0
-2.57751e-09 -2.01221e-08 0
4.42976e-09 -4.31552e-09 0
0 0 0
0 0 0
0 0 0
0 0 0
3.81516e-08 -2.18039e-08 0
3.78021e-08 -2.5818e-08 0
0 0 0
0 0 0
3.78021e-08 -2.5818e-08 0
2.93938e-08 -1.78312e-08 0
3.81516e-08 -2.18039e-08 0
3.78021e-08 -2.5818e-08 0
3.61379e-08 -2.86386e-08 0
4.38093e-08 -3.79475e-08 0
3.78021e-08 -2.5818e-08 0
2.93938e-08 -1.78312e-08 0
4.38093e-08 -3.79475e-08 0
3.50239e-08 -2.67192e-08 0
3.61379e-08 -2.86386e-08 0
4.38093e-08 -3.79475e-08 0
3.32007e-08 -1.87474e-08 0
4.44657e-08 -3.24234e-08 0
4.38093e-08 -3.79475e-08 0
3.50239e-08 -2.67192e-08 0
4.44657e-08 -3.24234e-08 0
3.41784e-08 -2.4587e-08 0
3.32007e-08 -1.87474e-08 0
4.44657e-08 -3.24234e-08 0
2.22352e-08 -1.06875e-08 0
2.97985e-08 -1.62615e-08 0
4.44657e-08 -3.24234e-08 0
3.41784e-08 -2.4587e-08 0
2.97985e-08 -1.62615e-08 0
2.16847e-08 -1.42532e-08 0
2.22352e-08 -1.06875e-08 0
2.97985e-08 -1.62615e-08 0
7.51742e-09 -2.00214e-08 0
1.01173e-08 -1.81573e-08 0
2.97985e-08 -1.62615e-08 0
2.16847e-08 -1.42532e-08 0
1.01173e-08 -1.81573e-08 0
3.58822e-09 -1.28823e-08 0
7.51742e-09 -2.00214e-08 0
1.01173e-08 -1.81573e-08 0
-7.45179e-09 -3.35085e-08 0
-8.10745e-09 -3.16124e-08 0
1.01173e-08 -1.81573e-08 0
3.58822e-09 -1.28823e-08 0
-8.10745e-09 -3.16124e-08 0
-9.94085e-09 -2.08395e-08 0
-7.45179e-09 -3.35085e-08 0
-8.10745e-09 -3.16124e-08 0
-1.7616e-08 -3.55124e-08 0
-1.94086e-08 -3.24402e-08 0
-8.10745e-09 -3.16124e-08 0
-9.94085e-09 -2.08395e-08 0
-1.94086e-08 -3.24402e-08 0
-1.51992e-08 -1.71916e-08 0
-1.7616e-08 -3.55124e-08 0
-1.94086e-08 -3.24402e-08 0
-1.57303e-08 -2.34283e-08 0
-1.36993e-08 -1.62585e-08 0
-1.94086e-08 -3.24402e-08 0
-1.51992e-08 -1.71916e-08 0
-1.36993e-08 -1.62585e-08 0
-1.07461e-08 -3.57353e-09 0
-1.57303e-08 -2.34283e-08 0
-1.36993e-08 -1.62585e-08 0
4.42976e-09 -4.31552e-09 0
8.21402e-09 4.54202e-09 0
-1.36993e-08 -1.62585e-08 0
-1.07461e-08 -3.57353e-09 0
8.21402e-09 4.54202e-09 0
5.26748e-10 8.44515e-09 0
4.42976e-09 -4.31552e-09 0
8.21402e-09 4.54202e-09 0
0 0 0
0 0 0
8.21402e-09 4.54202e-09 0
5.26748e-10 8.44515e-09 0
0 0 0
0 0 0
0 0 0
0 0 0
2.93938e-08 -1.78312e-08 0
1.381e-08 -3.65792e-09 0
0 0 0
0 0 0
1.381e-08 -3.65792e-09 0
-3.16358e-09 1.0598e-08 0
2.93938e-08 -1.78312e-08 0
1.381e-08 -3.65792e-09 0
3.50239e-08 -2.67192e-08 0
1.70255e-08 -5.22199e-09 0
1.381e-08 -3.65792e-09 0
-3.16358e-09 1.0598e-08 0
1.70255e-08 -5.22199e-09 0
8.21254e-09 1.85839e-08 0
3.50239e-08 -2.67192e-08 0
1.70255e-08 -5.22199e-09 0
3.41784e-08 -2.4587e-08 0
1.37044e-08 -4.43743e-09 0
1.70255e-08 -5.22199e-09 0
8.21254e-09 1.85839e-08 0
1.37044e-08 -4.43743e-09 0
1.49086e-08 2.17124e-08 0
3.41784e-08 -2.4587e-08 0
1.37044e-08 -4.43743e-09 0
2.16847e-08 -1.42532e-08 0
5.28851e-09 -3.43498e-09 0
1.37044e-08 -4.43743e-09 0
1.49086e-08 2.17124e-08 0
5.28851e-09 -3.43498e-09 0
1.39674e-08 1.67497e-08 0
2.16847e-08 -1.42532e-08 0
5.28851e-09 -3.43498e-09 0
3.58822e-09 -1.28823e-08 0
-5.41409e-09 -4.9382e-09 0
5.28851e-09 -3.43498e-09 0
1.39674e-08 1.67497e-08 0
-5.41409e-09 -4.9382e-09 0
2.86218e-09 6.8961e-09 0
3.58822e-09 -1.28823e-08 0
-5.41409e-09 -4.9382e-09 0
-9.94085e-09 -2.08395e-08 0
-1.449e-08 -4.16151e-09 0
-5.41409e-09 -4.9382e-09 0
2.86218e-09 6.8961e-09 0
-1.449e-08 -4.16151e-09 0
-1.59041e-08 9.65891e-09 0
-9.94085e-09 -2.08395e-08 0
-1.449e-08 -4.16151e-09 0
-1.51992e-08 -1.71916e-08 0
-1.96885e-08 2.69674e-09 0
-1.449e-08 -4.16151e-09 0
-1.59041e-08 9.65891e-09 0
-1.96885e-08 2.69674e-09 0
-3.02901e-08 1.89658e-08 0
-1.51992e-08 -1.71916e-08 0
-1.96885e-08 2.69674e-09 0
-1.07461e-08 -3.57353e-09 0
-1.98286e-08 9.61689e-09 0
-1.96885e-08 2.69674e-09 0
-3.02901e-08 1.89658e-08 0
-1.98286e-08 9.61689e-09 0
-3.33204e-08 1.96122e-08 0
-1.07461e-08 -3.57353e-09 0
-1.98286e-08 9.61689e-09 0
5.26748e-10 8.44515e-09 0
-1.44448e-08 1.07657e-08 0
-1.98286e-08 9.61689e-09 0
-3.33204e-08 1.96122e-08 0
-1.44448e-08 1.07657e-08 0
-2.79336e-08 1.12077e-08 0
5.26748e-10 8.44515e-09 0
-1.44448e-08 1.07657e-08 0
0 0 0
0 0 0
-1.44448e-08 1.07657e-08 0
-2.79336e-08 1.12077e-08 0
0 0 0
0 0 0
0 0 0
0 0 0
-3.16358e-09 1.0598e-08 0
-1.21476e-08 2.06441e-08 0
0 0 0
0 0 0
-1.21476e-08 2.06441e-08 0
-8.20372e-09 2.74317e-08 0
-3.16358e-09 1.0598e-08 0
-1.21476e-08 2.06441e-08 0
8.21254e-09 1.85839e-08 0
1.91131e-08 3.84439e-08 0
-1.21476e-08 2.06441e-08 0
-8.20372e-09 2.74317e-08 0
1.91131e-08 3.84439e-08 0
2.80728e-08 4.5423e-08 0
8.21254e-09 1.85839e-08 0
1.91131e-08 3.84439e-08 0
1.49086e-08 2.17124e-08 0
3.81107e-08 4.42526e-08 0
1.91131e-08 3.84439e-08 0
2.80728e-08 4.5423e-08 0
3.81107e-08 4.42526e-08 0
4.29822e-08 4.71962e-08 0
1.49086e-08 2.17124e-08 0
3.81107e-08 4.42526e-08 0
1.39674e-08 1.67497e-08 0
3.54434e-08 3.28581e-08 0
3.81107e-08 4.42526e-08 0
4.29822e-08 4.71962e-08 0
3.54434e-08 3.28581e-08 0
3.88779e-08 3.48348e-08 0
1.39674e-08 1.67497e-08 0
3.54434e-08 3.28581e-08 0
2.86218e-09 6.8961e-09 0
1.72519e-08 1.52361e-08 0
3.54434e-08 3.28581e-08 0
3.88779e-08 3.48348e-08 0
1.72519e-08 1.52361e-08 0
2.2356e-08 1.6832e-08 0
2.86218e-09 6.8961e-09 0
1.72519e-08 1.52361e-08 0
-1.59041e-08 9.65891e-09 0
-9.10518e-09 1.38469e-08 0
1.72519e-08 1.52361e-08 0
2.2356e-08 1.6832e-08 0
-9.10518e-09 1.38469e-08 0
7.75401e-11 8.27222e-09 0
-1.59041e-08 9.65891e-09 0
-9.10518e-09 1.38469e-08 0
-3.02901e-08 1.89658e-08 0
-3.22264e-08 2.50966e-08 0
-9.10518e-09 1.38469e-08 0
7.75401e-11 8.27222e-09 0
-3.22264e-08 2.50966e-08 0
-2.15006e-08 1.40672e-08 0
-3.02901e-08 1.89658e-08 0
-3.22264e-08 2.50966e-08 0
-3.33204e-08 1.96122e-08 0
-3.88994e-08 2.2651e-08 0
-3.22264e-08 2.50966e-08 0
-2.15006e-08 1.40672e-08 0
-3.88994e-08 2.2651e-08 0
-3.27122e-08 1.51669e-08 0
-3.33204e-08 1.96122e-08 0
-3.88994e-08 2.2651e-08 0
-2.79336e-08 1.12077e-08 0
-3.45922e-08 8.65735e-09 0
-3.88994e-08 2.2651e-08 0
-3.27122e-08 1.51669e-08 0
-3.45922e-08 8.65735e-09 0
-3.36896e-08 4.17812e-09 0
-2.79336e-08 1.12077e-08 0
-3.45922e-08 8.65735e-09 0
0 0 0
0 0 0
-3.45922e-08 8.65735e-09 0
-3.36896e-08 4.17812e-09 0
0 0 0
0 0 0
0 0 0
0 0 0
-8.20372e-09 2.74317e-08 0
-7.2213e-10 3.70552e-08 0
0 0 0
0 0 0
-7.2213e-10 3.70552e-08 0
0 0 0
-8.20372e-09 2.74317e-08 0
-7.2213e-10 3.70552e-08 0
2.80728e-08 4.5423e-08 0
1.77504e-08 4.29658e-08 0
-7.2213e-10 3.70552e-08 0
0 0 0
1.77504e-08 4.29658e-08 0
0 0 0
2.80728e-08 4.5423e-08 0
1.77504e-08 4.29658e-08 0
4.29822e-08 4.71962e-08 0
2.58461e-08 3.93159e-08 0
1.77504e-08 4.29658e-08 0
0 0 0
2.58461e-08 3.93159e-08 0
0 0 0
4.29822e-08 4.71962e-08 0
2.58461e-08 3.93159e-08 0
3.88779e-08 3.48348e-08 0
2.48586e-08 2.81234e-08 0
2.58461e-08 3.93159e-08 0
0 0 0
2.48586e-08 2.81234e-08 0
0 0 0
3.88779e-08 3.48348e-08 0
2.48586e-08 2.81234e-08 0
2.2356e-08 1.6832e-08 0
1.67374e-08 1.16683e-08 0
2.48586e-08 2.81234e-08 0
0 0 0
1.67374e-08 1.16683e-08 0
0 0 0
2.2356e-08 1.6832e-08 0
1.67374e-08 1.16683e-08 0
7.75401e-11 8.27222e-09 0
5.90404e-09 -3.4456e-09 0
1.67374e-08 1.16683e-08 0
0 0 0
5.90404e-09 -3.4456e-09 0
0 0 0
7.75401e-11 8.27222e-09 0
5.90404e-09 -3.4456e-09 0
-2.15006e-08 1.40672e-08 0
-5.68476e-09 -9.51985e-09 0
5.90404e-09 -3.4456e-09 0
0 0 0
-5.68476e-09 -9.51985e-09 0
0 0 0
-2.15006e-08 1.40672e-08 0
-5.68476e-09 -9.51985e-09 0
-3.27122e-08 1.51669e-08 0
-1.75294e-08 -4.55501e-09 0
-5.68476e-09 -9.51985e-09 0
0 0 0
-1.75294e-08 -4.55501e-09 0
0 0 0
-3.27122e-08 1.51669e-08 0
-1.75294e-08 -4.55501e-09 0
-3.36896e-08 4.17812e-09 0
-2.62643e-08 4.3977e-10 0
-1.75294e-08 -4.55501e-09 0
0 0 0
-2.62643e-08 4.3977e-10 0
0 0 0
-3.36896e-08 4.17812e-09 0
-2.62643e-08 4.3977e-10 0
0 0 0
0 0 0
-2.62643e-08 4.3977e-10 0
0 0 0
0 0 0
0 0 0
SCALARS pressure double 1
LOOKUP_TABLE default
4.73339e-06 -1.29732e-06 0.309013 0.293889 -1.29732e-06 -3.50701e-07 0.293889 0.249997 0.309013 0.293889 0.587778 0.559011 0.293889 0.249997 0.559011 0.475523 0.587778 0.559011 0.809008 0.769412 0.559011 0.475523 0.769412 0.654501 0.809008 0.769412 0.951045 0.904498 0.769412 0.654501 0.904498 0.769412 0.951045 0.904498 0.999988 0.951046 0.904498 0.769412 0.951046 0.809008 0.999988 0.951046 0.951046 0.904498 0.951046 0.809008 0.904498 0.769412 0.951046 0.904498 0.809008 0.769412 0.904498 0.769412 0.769412 0.654501 0.809008 0.769412 0.587779 0.559011 0.769412 0.654501 0.559011 0.475523 0.587779 0.559011 0.309013 0.293889 0.559011 0.475523 0.293889 0.249997 0.309013 0.293889 3.70719e-06 -1.13608e-06 0.293889 0.249997 -1.13608e-06 -4.92012e-07 -3.50701e-07 -4.18171e-07 0.249997 0.181634 -4.18171e-07 -1.61227e-07 0.181634 0.0954904 0.249997 0.181634 0.475523 0.345487 0.181634 0.0954904 0.345487 0.181634 0.475523 0.345487 0.654501 0.475523 0.345487 0.181634 0.475523 0.249997 0.654501 0.475523 0.769412 0.559011 0.475523 0.249997 0.559011 0.293889 0.769412 0.559011 0.809008 0.587778 0.559011 0.293889 0.587778 0.309013 0.809008 0.587778 0.769412 0.559011 0.587778 0.309013 0.559011 0.293889 0.769412 0.559011 0.654501 0.475523 0.559011 0.293889 0.475523 0.249997 0.654501 0.475523 0.475523 0.345488 0.475523 0.249997 0.345488 0.181634 0.475523 0.345488 0.249997 0.181634 0.345488 0.181634 0.181634 0.0954904 0.249997 0.181634 -4.92012e-07 -3.31292e-07 0.181634 0.0954904 -3.31292e-07 -1.91337e-07 -1.61227e-07 -2.15647e-08 0.0954904 -6.45455e-09 -2.15647e-08 1.89775e-07 -6.45455e-09 -0.0954904 0.0954904 -6.45455e-09 0.181634 2.15415e-09 -6.45455e-09 -0.0954904 2.15415e-09 -0.181634 0.181634 2.15415e-09 0.249997 1.67347e-08 2.15415e-09 -0.181634 1.67347e-08 -0.249997 0.249997 1.67347e-08 0.293889 3.11501e-08 1.67347e-08 -0.249997 3.11501e-08 -0.293889 0.293889 3.11501e-08 0.309013 3.5976e-08 3.11501e-08 -0.293889 3.5976e-08 -0.309013 0.309013 3.5976e-08 0.293889 2.85603e-08 3.5976e-08 -0.309013 2.85603e-08 -0.293889 0.293889 2.85603e-08 0.249997 1.26393e-08 2.85603e-08 -0.293889 1.26393e-08 -0.249997 0.249997 1.26393e-08 0.181634 -2.11798e-09 1.26393e-08 -0.249997 -2.11798e-09 -0.181634 0.181634 -2.11798e-09 0.0954904 -9.23394e-09 -2.11798e-09 -0.181634 -9.23394e-09 -0.0954904 0.0954904 -9.23394e-09 -1.91337e-07 -3.51922e-08 -9.23394e-09 -0.0954904 -3.51922e-08 2.20861e-07 1.89775e-07 3.76992e-07 -0.0954904 -0.181634 3.76992e-07 4.48826e-07 -0.181634 -0.249997 -0.0954904 -0.181634 -0.181634 -0.345487 -0.181634 -0.249997 -0.345487 -0.475523 -0.181634 -0.345487 -0.249997 -0.475523 -0.345487 -0.475523 -0.475523 -0.654501 -0.249997 -0.475523 -0.293889 -0.559011 -0.475523 -0.654501 -0.559011 -0.769412 -0.293889 -0.559011 -0.309013 -0.587778 -0.559011 -0.769412 -0.587778 -0.809008 -0.309013 -0.587778 -0.293889 -0.559011 -0.587778 -0.809008 -0.559011 -0.769412 -0.293889 -0.559011 -0.249997 -0.475523 -0.559011 -0.769412 -0.475523 -0.654501 -0.249997 -0.475523 -0.181634 -0.345488 -0.475523 -0.654501 -0.345488 -0.475523 -0.181634 -0.345488 -0.0954904 -0.181634 -0.345488 -0.475523 -0.181634 -0.249997 -0.0954904 -0.181634 2.20861e-07 2.75743e-07 -0.181634 -0.249997 2.75743e-07 5.39488e-07 4.48826e-07 5.13726e-07 -0.249997 -0.293889 5.13726e-07 9.31705e-07 -0.293889 -0.309014 -0.249997 -0.293889 -0.475523 -0.559011 -0.293889 -0.309014 -0.559011 -0.587778 -0.475523 -0.559011 -0.654501 -0.769412 -0.559011 -0.587778 -0.769412 -0.809008 -0.654501 -0.769412 -0.769412 -0.904498 -0.769412 -0.809008 -0.904498 -0.951045 -0.769412 -0.904498 -0.809008 -0.951046 -0.904498 -0.951045 -0.951046 -0.999988 -0.809008 -0.951046 -0.769412 -0.904498 -0.951046 -0.999988 -0.904498 -0.951045 -0.769412 -0.904498 -0.654501 -0.769412 -0.904498 -0.951045 -0.769412 -0.809008 -0.654501 -0.769412 -0.475523 -0.559011 -0.769412 -0.809008 -0.559011 -0.587778 -0.475523 -0.559011 -0.249997 -0.293889 -0.559011 -0.587778 -0.293889 -0.309013 -0.249997 -0.293889 5.39488e-07 6.28878e-07 -0.293889 -0.309013 6.28878e-07 -9.44825e-08 
SCALARS pressure_error double 1
LOOKUP_TABLE default