# vtk DataFile Version 3.0
#This file was generated by the deal.II library on 2026/6/6 at 13:03:07
ASCII
DATASET UNSTRUCTURED_GRID

POINTS 100 double
0 0 0
0.2 0 0
0 0.2 0
0.2 0.2 0
0 0.2 0
0.2 0.2 0
0 0.4 0
0.2 0.4 0
0 0.4 0
0.2 0.4 0
0 0.6 0
0.2 0.6 0
0 0.6 0
0.2 0.6 0
0 0.8 0
0.2 0.8 0
0 0.8 0
0.2 0.8 0
0 1 0
0.2 1 0
0.2 0 0
0.4 0 0
0.2 0.2 0
0.4 0.2 0
0.2 0.2 0
0.4 0.2 0
0.2 0.4 0
0.4 0.4 0
0.2 0.4 0
0.4 0.4 0
0.2 0.6 0
0.4 0.6 0
0.2 0.6 0
0.4 0.6 0
0.2 0.8 0
0.4 0.8 0
0.2 0.8 0
0.4 0.8 0
0.2 1 0
0.4 1 0
0.4 0 0
0.6 0 0
0.4 0.2 0
0.6 0.2 0
0.4 0.2 0
0.6 0.2 0
0.4 0.4 0
0.6 0.4 0
0.4 0.4 0
0.6 0.4 0
0.4 0.6 0
0.6 0.6 0
0.4 0.6 0
0.6 0.6 0
0.4 0.8 0
0.6 0.8 0
0.4 0.8 0
0.6 0.8 0
0.4 1 0
0.6 1 0
0.6 0 0
0.8 0 0
0.6 0.2 0
0.8 0.2 0
0.6 0.2 0
0.8 0.2 0
0.6 0.4 0
0.8 0.4 0
0.6 0.4 0
0.8 0.4 0
0.6 0.6 0
0.8 0.6 0
0.6 0.6 0
0.8 0.6 0
0.6 0.8 0
0.8 0.8 0
0.6 0.8 0
0.8 0.8 0
0.6 1 0
0.8 1 0
0.8 0 0
1 0 0
0.8 0.2 0
1 0.2 0
0.8 0.2 0
1 0.2 0
0.8 0.4 0
1 0.4 0
0.8 0.4 0
1 0.4 0
0.8 0.6 0
1 0.6 0
0.8 0.6 0
1 0.6 0
0.8 0.8 0
1 0.8 0
0.8 0.8 0
1 0.8 0
0.8 1 0
1 1 0

CELLS 25 125
4	0	1	3	2
4	4	5	7	6
4	8	9	11	10
4	12	13	15	14
4	16	17	19	18
4	20	21	23	22
4	24	25	27	26
4	28	29	31	30
4	32	33	35	34
4	36	37	39	38
4	40	41	43	42
4	44	45	47	46
4	48	49	51	50
4	52	53	55	54
4	56	57	59	58
4	60	61	63	62
4	64	65	67	66
4	68	69	71	70
4	72	73	75	74
4	76	77	79	78
4	80	81	83	82
4	84	85	87	86
4	88	89	91	90
4	92	93	95	94
4	96	97	99	98

CELL_TYPES 25
 9 9 9 9 9 9 9 9 9 9 9 9 9 9 9 9 9 9 9 9 9 9 9 9 9
POINT_DATA 100
VECTORS velocity double
0 0 0
0.587785 0 0
0 -0.587785 0
0.475554 -0.4755 0
0 -0.587785 0
0.475554 -0.4755 0
0 -0.951057 0
0.181653 -0.769416 0
0 -0.951057 0
0.181653 -0.769416 0
0 -0.951057 0
-0.181618 -0.769426 0
0 -0.951057 0
-0.181618 -0.769426 0
0 -0.587785 0
-0.475502 -0.475556 0
0 -0.587785 0
-0.475502 -0.475556 0
0 -1.22465e-16 0
-0.587785 -9.9076e-17 0
0.587785 0 0
0.951057 0 0
0.475554 -0.4755 0
0.769432 -0.181622 0
0.475554 -0.4755 0
0.769432 -0.181622 0
0.181653 -0.769416 0
0.293904 -0.293888 0
0.181653 -0.769416 0
0.293904 -0.293888 0
-0.181618 -0.769426 0
-0.293881 -0.293898 0
-0.181618 -0.769426 0
-0.293881 -0.293898 0
-0.475502 -0.475556 0
-0.76941 -0.181649 0
-0.475502 -0.475556 0
-0.76941 -0.181649 0
-0.587785 -9.9076e-17 0
-0.951057 -3.78437e-17 0
0.951057 0 0
0.951057 0 0
0.769432 -0.181622 0
0.769424 0.181644 0
0.769432 -0.181622 0
0.769424 0.181644 0
0.293904 -0.293888 0
0.293896 0.293896 0
0.293904 -0.293888 0
0.293896 0.293896 0
-0.293881 -0.293898 0
-0.293889 0.293889 0
-0.293881 -0.293898 0
-0.293889 0.293889 0
-0.76941 -0.181649 0
-0.769419 0.181628 0
-0.76941 -0.181649 0
-0.769419 0.181628 0
-0.951057 -3.78437e-17 0
-0.951057 3.78437e-17 0
0.951057 0 0
0.587785 0 0
0.769424 0.181644 0
0.475502 0.475553 0
0.769424 0.181644 0
0.475502 0.475553 0
0.293896 0.293896 0
0.181631 0.769425 0
0.293896 0.293896 0
0.181631 0.769425 0
-0.293889 0.293889 0
-0.18164 0.769418 0
-0.293889 0.293889 0
-0.18164 0.769418 0
-0.769419 0.181628 0
-0.475555 0.475504 0
-0.769419 0.181628 0
-0.475555 0.475504 0
-0.951057 3.78437e-17 0
-0.587785 9.9076e-17 0
0.587785 0 0
1.22465e-16 0 0
0.475502 0.475553 0
9.9076e-17 0.587785 0
0.475502 0.475553 0
9.9076e-17 0.587785 0
0.181631 0.769425 0
3.78437e-17 0.951057 0
0.181631 0.769425 0
3.78437e-17 0.951057 0
-0.18164 0.769418 0
-3.78437e-17 0.951057 0
-0.18164 0.769418 0
-3.78437e-17 0.951057 0
-0.475555 0.475504 0
-9.9076e-17 0.587785 0
-0.475555 0.475504 0
-9.9076e-17 0.587785 0
-0.587785 9.9076e-17 0
-1.22465e-16 1.22465e-16 0
VECTORS velocity_error double
0 0 0
0 0 0
0 0 0
-2.62085e-05 -2.8144e-05 0
0 0 0
-2.62085e-05 -2.8144e-05 0
0 0 0
-1.72463e-05 -4.42873e-06 0
0 0 0
-1.72463e-05 -4.42873e-06 0
0 0 0
-1.73807e-05 5.21255e-06 0
0 0 0
-1.73807e-05 5.21255e-06 0
0 0 0
-2.62619e-05 2.80906e-05 0
0 0 0
-2.62619e-05 2.80906e-05 0
0 0 0
0 0 0
0 0 0
0 0 0
-2.62085e-05 -2.8144e-05 0
-1.13377e-05 -1.38407e-05 0
-2.62085e-05 -2.8144e-05 0
-1.13377e-05 -1.38407e-05 0
-1.72463e-05 -4.42873e-06 0
-1.16091e-05 -4.94075e-06 0
-1.72463e-05 -4.42873e-06 0
-1.16091e-05 -4.94075e-06 0
-1.73807e-05 5.21255e-06 0
-1.16107e-05 4.93924e-06 0
-1.73807e-05 5.21255e-06 0
-1.16107e-05 4.93924e-06 0
-2.62619e-05 2.80906e-05 0
-1.05537e-05 1.37064e-05 0
-2.62619e-05 2.80906e-05 0
-1.05537e-05 1.37064e-05 0
0 0 0
0 0 0
0 0 0
0 0 0
-1.13377e-05 -1.38407e-05 0
-2.74166e-06 -7.97887e-06 0
-1.13377e-05 -1.38407e-05 0
-2.74166e-06 -7.97887e-06 0
-1.16091e-05 -4.94075e-06 0
-3.37398e-06 -3.29424e-06 0
-1.16091e-05 -4.94075e-06 0
-3.37398e-06 -3.29424e-06 0
-1.16107e-05 4.93924e-06 0
-3.37561e-06 3.29599e-06 0
-1.16107e-05 4.93924e-06 0
-3.37561e-06 3.29599e-06 0
-1.05537e-05 1.37064e-05 0
-1.95776e-06 8.11334e-06 0
-1.05537e-05 1.37064e-05 0
-1.95776e-06 8.11334e-06 0
0 0 0
0 0 0
0 0 0
0 0 0
-2.74166e-06 -7.97887e-06 0
2.63257e-05 -2.43903e-05 0
-2.74166e-06 -7.97887e-06 0
2.63257e-05 -2.43903e-05 0
-3.37398e-06 -3.29424e-06 0
4.57335e-06 -4.16743e-06 0
-3.37398e-06 -3.29424e-06 0
4.57335e-06 -4.16743e-06 0
-3.37561e-06 3.29599e-06 0
4.43903e-06 3.38326e-06 0
-3.37561e-06 3.29599e-06 0
4.43903e-06 3.38326e-06 0
-1.95776e-06 8.11334e-06 0
2.62723e-05 2.44435e-05 0
-1.95776e-06 8.11334e-06 0
2.62723e-05 2.44435e-05 0
0 0 0
0 0 0
0 0 0
0 0 0
2.63257e-05 -2.43903e-05 0
0 0 0
2.63257e-05 -2.43903e-05 0
0 0 0
4.57335e-06 -4.16743e-06 0
0 0 0
4.57335e-06 -4.16743e-06 0
0 0 0
4.43903e-06 3.38326e-06 0
0 0 0
4.43903e-06 3.38326e-06 0
0 0 0
2.62723e-05 2.44435e-05 0
0 0 0
2.62723e-05 2.44435e-05 0
0 0 0
0 0 0
0 0 0
SCALARS pressure double 1
LOOKUP_TABLE default
-0.390884 -0.341352 0.246609 0.322913 0.246609 0.322913 0.905017 0.8938 0.905017 0.8938 0.9049 0.893842 0.9049 0.893842 0.246226 0.322913 0.246226 0.322913 -0.390884 -0.340969 -0.341352 -0.0460158 0.322913 0.306177 0.322913 0.306177 0.8938 0.697675 0.8938 0.697675 0.893842 0.697675 0.893842 0.697675 0.322913 0.306135 0.322913 0.306135 -0.340969 -0.0458981 -0.0460158 -0.0459294 0.306177 -0.0571054 0.306177 -0.0571054 0.697675 0.110012 0.697675 0.110012 0.697675 0.110012 0.697675 0.110012 0.306135 -0.0570629 0.306135 -0.0570629 -0.0458981 -0.0460471 -0.0459294 -0.341882 -0.0571054 -0.627912 -0.0571054 -0.627912 0.110012 -0.644728 0.110012 -0.644728 0.110012 -0.64477 0.110012 -0.64477 -0.0570629 -0.627912 -0.0570629 -0.627912 -0.0460471 -0.342265 -0.341882 -0.384405 -0.627912 -0.929842 -0.627912 -0.929842 -0.644728 -0.996963 -0.644728 -0.996963 -0.64477 -0.996845 -0.64477 -0.996845 -0.627912 -0.929459 -0.627912 -0.929459 -0.342265 -0.384405 
SCALARS pressure_error double 1
LOOKUP_TABLE default
0.390884 0.341352 0.341177 0.152615 0.341177 0.152615 0.046039 -0.124379 0.046039 -0.124379 0.0461568 -0.124421 0.0461568 -0.124421 0.34156 0.152615 0.34156 0.152615 0.390884 0.340969 0.341352 0.0460158 0.152615 -0.124542 0.152615 -0.124542 -0.124379 -0.403783 -0.124379 -0.403783 -0.124421 -0.403783 -0.124421 -0.403783 0.152615 -0.124499 0.152615 -0.124499 0.340969 0.0458981 0.0460158 0.0459294 -0.124542 -0.12453 -0.124542 -0.12453 -0.403783 -0.403904 -0.403783 -0.403904 -0.403783 -0.403904 -0.403783 -0.403904 -0.124499 -0.124573 -0.124499 -0.124573 0.0458981 0.0460471 0.0459294 0.341882 -0.12453 0.152384 -0.12453 0.152384 -0.403904 -0.124693 -0.403904 -0.124693 -0.403904 -0.124651 -0.403904 -0.124651 -0.124573 0.152384 -0.124573 0.152384 0.0460471 0.342265 0.341882 0.384405 0.152384 0.342057 0.152384 0.342057 -0.124693 0.0459062 -0.124693 0.0459062 -0.124651 0.0457885 -0.124651 0.0457885 0.152384 0.341674 0.152384 0.341674 0.342265 0.384405 
SCALARS temperature double 1
LOOKUP_TABLE default
0 0 0 0 0 0 0 0 0 0 0 0 0 0 0 0 0 0 0 0 0 0 0 0 0 0 0 0 0 0 0 0 0 0 0 0 0 0 0 0 0 0 0 0 0 0 0 0 0 0 0 0 0 0 0 0 0 0 0 0 0 0 0 0 0 0 0 0 0 0 0 0 0 0 0 0 0 0 0 0 0 0 0 0 0 0 0 0 0 0 0 0 0 0 0 0 0 0 0 0 
SCALARS temperature_error double 1
LOOKUP_TABLE default
0 0 0.587785 0.181636 0.587785 0.181636 0.951057 0.293893 0.951057 0.293893 0.951057 0.293893 0.951057 0.293893 0.587785 0.181636 0.587785 0.181636 1.22465e-16 3.78437e-17 0 0 0.181636 -0.475528 0.181636 -0.475528 0.293893 -0.769421 0.293893 -0.769421 0.293893 -0.769421 0.293893 -0.769421 0.181636 -0.475528 0.181636 -0.475528 3.78437e-17 -9.9076e-17 0 0 -0.475528 -0.475528 -0.475528 -0.475528 -0.769421 -0.769421 -0.769421 -0.769421 -0.769421 -0.769421 -0.769421 -0.769421 -0.475528 -0.475528 -0.475528 -0.475528 -9.9076e-17 -9.9076e-17 0 0 -0.475528 0.181636 -0.475528 0.181636 -0.769421 0.293893 -0.769421 0.293893 -0.769421 0.293893 -0.769421 0.293893 -0.475528 0.181636 -0.475528 0.181636 -9.9076e-17 3.78437e-17 0 0 0.181636 0.587785 0.181636 0.587785 0.293893 0.951057 0.293893 0.951057 0.293893 0.951057 0.293893 0.951057 0.181636 0.587785 0.181636 0.587785 3.78437e-17 1.22465e-16 
