# vtk DataFile Version 3.0
#This file was generated by the deal.II library on 2026/6/6 at 13:03:33
ASCII
DATASET UNSTRUCTURED_GRID

POINTS 400 double
0 0 0
0.1 0 0
0 0.1 0
0.1 0.1 0
0.1 0 0
0.2 0 0
0.1 0.1 0
0.2 0.1 0
0 0.1 0
0.1 0.1 0
0 0.2 0
0.1 0.2 0
0.1 0.1 0
0.2 0.1 0
0.1 0.2 0
0.2 0.2 0
0 0.2 0
0.1 0.2 0
0 0.3 0
0.1 0.3 0
0.1 0.2 0
0.2 0.2 0
0.1 0.3 0
0.2 0.3 0
0 0.3 0
0.1 0.3 0
0 0.4 0
0.1 0.4 0
0.1 0.3 0
0.2 0.3 0
0.1 0.4 0
0.2 0.4 0
0 0.4 0
0.1 0.4 0
0 0.5 0
0.1 0.5 0
0.1 0.4 0
0.2 0.4 0
0.1 0.5 0
0.2 0.5 0
0 0.5 0
0.1 0.5 0
0 0.6 0
0.1 0.6 0
0.1 0.5 0
0.2 0.5 0
0.1 0.6 0
0.2 0.6 0
0 0.6 0
0.1 0.6 0
0 0.7 0
0.1 0.7 0
0.1 0.6 0
0.2 0.6 0
0.1 0.7 0
0.2 0.7 0
0 0.7 0
0.1 0.7 0
0 0.8 0
0.1 0.8 0
0.1 0.7 0
0.2 0.7 0
0.1 0.8 0
0.2 0.8 0
0 0.8 0
0.1 0.8 0
0 0.9 0
0.1 0.9 0
0.1 0.8 0
0.2 0.8 0
0.1 0.9 0
0.2 0.9 0
0 0.9 0
0.1 0.9 0
0 1 0
0.1 1 0
0.1 0.9 0
0.2 0.9 0
0.1 1 0
0.2 1 0
0.2 0 0
0.3 0 0
0.2 0.1 0
0.3 0.1 0
0.3 0 0
0.4 0 0
0.3 0.1 0
0.4 0.1 0
0.2 0.1 0
0.3 0.1 0
0.2 0.2 0
0.3 0.2 0
0.3 0.1 0
0.4 0.1 0
0.3 0.2 0
0.4 0.2 0
0.2 0.2 0
0.3 0.2 0
0.2 0.3 0
0.3 0.3 0
0.3 0.2 0
0.4 0.2 0
0.3 0.3 0
0.4 0.3 0
0.2 0.3 0
0.3 0.3 0
0.2 0.4 0
0.3 0.4 0
0.3 0.3 0
0.4 0.3 0
0.3 0.4 0
0.4 0.4 0
0.2 0.4 0
0.3 0.4 0
0.2 0.5 0
0.3 0.5 0
0.3 0.4 0
0.4 0.4 0
0.3 0.5 0
0.4 0.5 0
0.2 0.5 0
0.3 0.5 0
0.2 0.6 0
0.3 0.6 0
0.3 0.5 0
0.4 0.5 0
0.3 0.6 0
0.4 0.6 0
0.2 0.6 0
0.3 0.6 0
0.2 0.7 0
0.3 0.7 0
0.3 0.6 0
0.4 0.6 0
0.3 0.7 0
0.4 0.7 0
0.2 0.7 0
0.3 0.7 0
0.2 0.8 0
0.3 0.8 0
0.3 0.7 0
0.4 0.7 0
0.3 0.8 0
0.4 0.8 0
0.2 0.8 0
0.3 0.8 0
0.2 0.9 0
0.3 0.9 0
0.3 0.8 0
0.4 0.8 0
0.3 0.9 0
0.4 0.9 0
0.2 0.9 0
0.3 0.9 0
0.2 1 0
0.3 1 0
0.3 0.9 0
0.4 0.9 0
0.3 1 0
0.4 1 0
0.4 0 0
0.5 0 0
0.4 0.1 0
0.5 0.1 0
0.5 0 0
0.6 0 0
0.5 0.1 0
0.6 0.1 0
0.4 0.1 0
0.5 0.1 0
0.4 0.2 0
0.5 0.2 0
0.5 0.1 0
0.6 0.1 0
0.5 0.2 0
0.6 0.2 0
0.4 0.2 0
0.5 0.2 0
0.4 0.3 0
0.5 0.3 0
0.5 0.2 0
0.6 0.2 0
0.5 0.3 0
0.6 0.3 0
0.4 0.3 0
0.5 0.3 0
0.4 0.4 0
0.5 0.4 0
0.5 0.3 0
0.6 0.3 0
0.5 0.4 0
0.6 0.4 0
0.4 0.4 0
0.5 0.4 0
0.4 0.5 0
0.5 0.5 0
0.5 0.4 0
0.6 0.4 0
0.5 0.5 0
0.6 0.5 0
0.4 0.5 0
0.5 0.5 0
0.4 0.6 0
0.5 0.6 0
0.5 0.5 0
0.6 0.5 0
0.5 0.6 0
0.6 0.6 0
0.4 0.6 0
0.5 0.6 0
0.4 0.7 0
0.5 0.7 0
0.5 0.6 0
0.6 0.6 0
0.5 0.7 0
0.6 0.7 0
0.4 0.7 0
0.5 0.7 0
0.4 0.8 0
0.5 0.8 0
0.5 0.7 0
0.6 0.7 0
0.5 0.8 0
0.6 0.8 0
0.4 0.8 0
0.5 0.8 0
0.4 0.9 0
0.5 0.9 0
0.5 0.8 0
0.6 0.8 0
0.5 0.9 0
0.6 0.9 0
0.4 0.9 0
0.5 0.9 0
0.4 1 0
0.5 1 0
0.5 0.9 0
0.6 0.9 0
0.5 1 0
0.6 1 0
0.6 0 0
0.7 0 0
0.6 0.1 0
0.7 0.1 0
0.7 0 0
0.8 0 0
0.7 0.1 0
0.8 0.1 0
0.6 0.1 0
0.7 0.1 0
0.6 0.2 0
0.7 0.2 0
0.7 0.1 0
0.8 0.1 0
0.7 0.2 0
0.8 0.2 0
0.6 0.2 0
0.7 0.2 0
0.6 0.3 0
0.7 0.3 0
0.7 0.2 0
0.8 0.2 0
0.7 0.3 0
0.8 0.3 0
0.6 0.3 0
0.7 0.3 0
0.6 0.4 0
0.7 0.4 0
0.7 0.3 0
0.8 0.3 0
0.7 0.4 0
0.8 0.4 0
0.6 0.4 0
0.7 0.4 0
0.6 0.5 0
0.7 0.5 0
0.7 0.4 0
0.8 0.4 0
0.7 0.5 0
0.8 0.5 0
0.6 0.5 0
0.7 0.5 0
0.6 0.6 0
0.7 0.6 0
0.7 0.5 0
0.8 0.5 0
0.7 0.6 0
0.8 0.6 0
0.6 0.6 0
0.7 0.6 0
0.6 0.7 0
0.7 0.7 0
0.7 0.6 0
0.8 0.6 0
0.7 0.7 0
0.8 0.7 0
0.6 0.7 0
0.7 0.7 0
0.6 0.8 0
0.7 0.8 0
0.7 0.7 0
0.8 0.7 0
0.7 0.8 0
0.8 0.8 0
0.6 0.8 0
0.7 0.8 0
0.6 0.9 0
0.7 0.9 0
0.7 0.8 0
0.8 0.8 0
0.7 0.9 0
0.8 0.9 0
0.6 0.9 0
0.7 0.9 0
0.6 1 0
0.7 1 0
0.7 0.9 0
0.8 0.9 0
0.7 1 0
0.8 1 0
0.8 0 0
0.9 0 0
0.8 0.1 0
0.9 0.1 0
0.9 0 0
1 0 0
0.9 0.1 0
1 0.1 0
0.8 0.1 0
0.9 0.1 0
0.8 0.2 0
0.9 0.2 0
0.9 0.1 0
1 0.1 0
0.9 0.2 0
1 0.2 0
0.8 0.2 0
0.9 0.2 0
0.8 0.3 0
0.9 0.3 0
0.9 0.2 0
1 0.2 0
0.9 0.3 0
1 0.3 0
0.8 0.3 0
0.9 0.3 0
0.8 0.4 0
0.9 0.4 0
0.9 0.3 0
1 0.3 0
0.9 0.4 0
1 0.4 0
0.8 0.4 0
0.9 0.4 0
0.8 0.5 0
0.9 0.5 0
0.9 0.4 0
1 0.4 0
0.9 0.5 0
1 0.5 0
0.8 0.5 0
0.9 0.5 0
0.8 0.6 0
0.9 0.6 0
0.9 0.5 0
1 0.5 0
0.9 0.6 0
1 0.6 0
0.8 0.6 0
0.9 0.6 0
0.8 0.7 0
0.9 0.7 0
0.9 0.6 0
1 0.6 0
0.9 0.7 0
1 0.7 0
0.8 0.7 0
0.9 0.7 0
0.8 0.8 0
0.9 0.8 0
0.9 0.7 0
1 0.7 0
0.9 0.8 0
1 0.8 0
0.8 0.8 0
0.9 0.8 0
0.8 0.9 0
0.9 0.9 0
0.9 0.8 0
1 0.8 0
0.9 0.9 0
1 0.9 0
0.8 0.9 0
0.9 0.9 0
0.8 1 0
0.9 1 0
0.9 0.9 0
1 0.9 0
0.9 1 0
1 1 0

CELLS 100 500
4	0	1	3	2
4	4	5	7	6
4	8	9	11	10
4	12	13	15	14
4	16	17	19	18
4	20	21	23	22
4	24	25	27	26
4	28	29	31	30
4	32	33	35	34
4	36	37	39	38
4	40	41	43	42
4	44	45	47	46
4	48	49	51	50
4	52	53	55	54
4	56	57	59	58
4	60	61	63	62
4	64	65	67	66
4	68	69	71	70
4	72	73	75	74
4	76	77	79	78
4	80	81	83	82
4	84	85	87	86
4	88	89	91	90
4	92	93	95	94
4	96	97	99	98
4	100	101	103	102
4	104	105	107	106
4	108	109	111	110
4	112	113	115	114
4	116	117	119	118
4	120	121	123	122
4	124	125	127	126
4	128	129	131	130
4	132	133	135	134
4	136	137	139	138
4	140	141	143	142
4	144	145	147	146
4	148	149	151	150
4	152	153	155	154
4	156	157	159	158
4	160	161	163	162
4	164	165	167	166
4	168	169	171	170
4	172	173	175	174
4	176	177	179	178
4	180	181	183	182
4	184	185	187	186
4	188	189	191	190
4	192	193	195	194
4	196	197	199	198
4	200	201	203	202
4	204	205	207	206
4	208	209	211	210
4	212	213	215	214
4	216	217	219	218
4	220	221	223	222
4	224	225	227	226
4	228	229	231	230
4	232	233	235	234
4	236	237	239	238
4	240	241	243	242
4	244	245	247	246
4	248	249	251	250
4	252	253	255	254
4	256	257	259	258
4	260	261	263	262
4	264	265	267	266
4	268	269	271	270
4	272	273	275	274
4	276	277	279	278
4	280	281	283	282
4	284	285	287	286
4	288	289	291	290
4	292	293	295	294
4	296	297	299	298
4	300	301	303	302
4	304	305	307	306
4	308	309	311	310
4	312	313	315	314
4	316	317	319	318
4	320	321	323	322
4	324	325	327	326
4	328	329	331	330
4	332	333	335	334
4	336	337	339	338
4	340	341	343	342
4	344	345	347	346
4	348	349	351	350
4	352	353	355	354
4	356	357	359	358
4	360	361	363	362
4	364	365	367	366
4	368	369	371	370
4	372	373	375	374
4	376	377	379	378
4	380	381	383	382
4	384	385	387	386
4	388	389	391	390
4	392	393	395	394
4	396	397	399	398

CELL_TYPES 100
 9 9 9 9 9 9 9 9 9 9 9 9 9 9 9 9 9 9 9 9 9 9 9 9 9 9 9 9 9 9 9 9 9 9 9 9 9 9 9 9 9 9 9 9 9 9 9 9 9 9 9 9 9 9 9 9 9 9 9 9 9 9 9 9 9 9 9 9 9 9 9 9 9 9 9 9 9 9 9 9 9 9 9 9 9 9 9 9 9 9 9 9 9 9 9 9 9 9 9 9
POINT_DATA 400
VECTORS velocity double
0 0 0
0.309017 0 0
0 -0.309017 0
0.293893 -0.293893 0
0.309017 0 0
0.587785 0 0
0.293893 -0.293893 0
0.559017 -0.25 0
0 -0.309017 0
0.293893 -0.293893 0
0 -0.587785 0
0.25 -0.559017 0
0.293893 -0.293893 0
0.559017 -0.25 0
0.25 -0.559017 0
0.475528 -0.475528 0
0 -0.587785 0
0.25 -0.559017 0
0 -0.809017 0
0.181636 -0.769421 0
0.25 -0.559017 0
0.475528 -0.475528 0
0.181636 -0.769421 0
0.345491 -0.654508 0
0 -0.809017 0
0.181636 -0.769421 0
0 -0.951057 0
0.0954915 -0.904509 0
0.181636 -0.769421 0
0.345491 -0.654508 0
0.0954915 -0.904509 0
0.181636 -0.769421 0
0 -0.951057 0
0.0954915 -0.904509 0
0 -1 0
-1.58698e-09 -0.951056 0
0.0954915 -0.904509 0
0.181636 -0.769421 0
-1.58698e-09 -0.951056 0
-6.65618e-09 -0.809017 0
0 -1 0
-1.58698e-09 -0.951056 0
0 -0.951057 0
-0.0954915 -0.904508 0
-1.58698e-09 -0.951056 0
-6.65618e-09 -0.809017 0
-0.0954915 -0.904508 0
-0.181636 -0.769421 0
0 -0.951057 0
-0.0954915 -0.904508 0
0 -0.809017 0
-0.181636 -0.769421 0
-0.0954915 -0.904508 0
-0.181636 -0.769421 0
-0.181636 -0.769421 0
-0.345491 -0.654508 0
0 -0.809017 0
-0.181636 -0.769421 0
0 -0.587785 0
-0.25 -0.559017 0
-0.181636 -0.769421 0
-0.345491 -0.654508 0
-0.25 -0.559017 0
-0.475528 -0.475528 0
0 -0.587785 0
-0.25 -0.559017 0
0 -0.309017 0
-0.293893 -0.293893 0
-0.25 -0.559017 0
-0.475528 -0.475528 0
-0.293893 -0.293893 0
-0.559017 -0.25 0
0 -0.309017 0
-0.293893 -0.293893 0
0 -1.22465e-16 0
-0.309017 -1.16471e-16 0
-0.293893 -0.293893 0
-0.559017 -0.25 0
-0.309017 -1.16471e-16 0
-0.587785 -9.9076e-17 0
0.587785 0 0
0.809017 0 0
0.559017 -0.25 0
0.769421 -0.181636 0
0.809017 0 0
0.951057 0 0
0.769421 -0.181636 0
0.904508 -0.0954915 0
0.559017 -0.25 0
0.769421 -0.181636 0
0.475528 -0.475528 0
0.654508 -0.345491 0
0.769421 -0.181636 0
0.904508 -0.0954915 0
0.654508 -0.345491 0
0.769421 -0.181636 0
0.475528 -0.475528 0
0.654508 -0.345491 0
0.345491 -0.654508 0
0.475528 -0.475528 0
0.654508 -0.345491 0
0.769421 -0.181636 0
0.475528 -0.475528 0
0.559017 -0.25 0
0.345491 -0.654508 0
0.475528 -0.475528 0
0.181636 -0.769421 0
0.25 -0.559017 0
0.475528 -0.475528 0
0.559017 -0.25 0
0.25 -0.559017 0
0.293893 -0.293893 0
0.181636 -0.769421 0
0.25 -0.559017 0
-6.65618e-09 -0.809017 0
-9.72693e-09 -0.587785 0
0.25 -0.559017 0
0.293893 -0.293893 0
-9.72693e-09 -0.587785 0
-4.28387e-09 -0.309017 0
-6.65618e-09 -0.809017 0
-9.72693e-09 -0.587785 0
-0.181636 -0.769421 0
-0.25 -0.559017 0
-9.72693e-09 -0.587785 0
-4.28387e-09 -0.309017 0
-0.25 -0.559017 0
-0.293893 -0.293893 0
-0.181636 -0.769421 0
-0.25 -0.559017 0
-0.345491 -0.654508 0
-0.475528 -0.475528 0
-0.25 -0.559017 0
-0.293893 -0.293893 0
-0.475528 -0.475528 0
-0.559017 -0.25 0
-0.345491 -0.654508 0
-0.475528 -0.475528 0
-0.475528 -0.475528 0
-0.654508 -0.345491 0
-0.475528 -0.475528 0
-0.559017 -0.25 0
-0.654508 -0.345491 0
-0.769421 -0.181636 0
-0.475528 -0.475528 0
-0.654508 -0.345491 0
-0.559017 -0.25 0
-0.769421 -0.181636 0
-0.654508 -0.345491 0
-0.769421 -0.181636 0
-0.769421 -0.181636 0
-0.904509 -0.0954915 0
-0.559017 -0.25 0
-0.769421 -0.181636 0
-0.587785 -9.9076e-17 0
-0.809017 -7.19829e-17 0
-0.769421 -0.181636 0
-0.904509 -0.0954915 0
-0.809017 -7.19829e-17 0
-0.951057 -3.78437e-17 0
0.951057 0 0
1 0 0
0.904508 -0.0954915 0
0.951057 4.61603e-09 0
1 0 0
0.951057 0 0
0.951057 4.61603e-09 0
0.904509 0.0954915 0
0.904508 -0.0954915 0
0.951057 4.61603e-09 0
0.769421 -0.181636 0
0.809017 6.44491e-09 0
0.951057 4.61603e-09 0
0.904509 0.0954915 0
0.809017 6.44491e-09 0
0.769421 0.181636 0
0.769421 -0.181636 0
0.809017 6.44491e-09 0
0.559017 -0.25 0
0.587785 5.28574e-09 0
0.809017 6.44491e-09 0
0.769421 0.181636 0
0.587785 5.28574e-09 0
0.559017 0.25 0
0.559017 -0.25 0
0.587785 5.28574e-09 0
0.293893 -0.293893 0
0.309017 3.29458e-09 0
0.587785 5.28574e-09 0
0.559017 0.25 0
0.309017 3.29458e-09 0
0.293893 0.293893 0
0.293893 -0.293893 0
0.309017 3.29458e-09 0
-4.28387e-09 -0.309017 0
3.41055e-09 3.50125e-09 0
0.309017 3.29458e-09 0
0.293893 0.293893 0
3.41055e-09 3.50125e-09 0
-5.89662e-09 0.309017 0
-4.28387e-09 -0.309017 0
3.41055e-09 3.50125e-09 0
-0.293893 -0.293893 0
-0.309017 1.68183e-09 0
3.41055e-09 3.50125e-09 0
-5.89662e-09 0.309017 0
-0.309017 1.68183e-09 0
-0.293893 0.293893 0
-0.293893 -0.293893 0
-0.309017 1.68183e-09 0
-0.559017 -0.25 0
-0.587785 -5.54255e-09 0
-0.309017 1.68183e-09 0
-0.293893 0.293893 0
-0.587785 -5.54255e-09 0
-0.559017 0.25 0
-0.559017 -0.25 0
-0.587785 -5.54255e-09 0
-0.769421 -0.181636 0
-0.809017 -1.20389e-08 0
-0.587785 -5.54255e-09 0
-0.559017 0.25 0
-0.809017 -1.20389e-08 0
-0.769421 0.181636 0
-0.769421 -0.181636 0
-0.809017 -1.20389e-08 0
-0.904509 -0.0954915 0
-0.951056 -1.21963e-08 0
-0.809017 -1.20389e-08 0
-0.769421 0.181636 0
-0.951056 -1.21963e-08 0
-0.904508 0.0954915 0
-0.904509 -0.0954915 0
-0.951056 -1.21963e-08 0
-0.951057 -3.78437e-17 0
-1 -3.46914e-32 0
-0.951056 -1.21963e-08 0
-0.904508 0.0954915 0
-1 -3.46914e-32 0
-0.951057 3.78437e-17 0
0.951057 0 0
0.809017 0 0
0.904509 0.0954915 0
0.769421 0.181636 0
0.809017 0 0
0.587785 0 0
0.769421 0.181636 0
0.559017 0.25 0
0.904509 0.0954915 0
0.769421 0.181636 0
0.769421 0.181636 0
0.654508 0.345491 0
0.769421 0.181636 0
0.559017 0.25 0
0.654508 0.345491 0
0.475528 0.475528 0
0.769421 0.181636 0
0.654508 0.345491 0
0.559017 0.25 0
0.475528 0.475528 0
0.654508 0.345491 0
0.475528 0.475528 0
0.475528 0.475528 0
0.345491 0.654508 0
0.559017 0.25 0
0.475528 0.475528 0
0.293893 0.293893 0
0.25 0.559017 0
0.475528 0.475528 0
0.345491 0.654508 0
0.25 0.559017 0
0.181636 0.769421 0
0.293893 0.293893 0
0.25 0.559017 0
-5.89662e-09 0.309017 0
-2.05552e-08 0.587785 0
0.25 0.559017 0
0.181636 0.769421 0
-2.05552e-08 0.587785 0
-2.514e-08 0.809017 0
-5.89662e-09 0.309017 0
-2.05552e-08 0.587785 0
-0.293893 0.293893 0
-0.25 0.559017 0
-2.05552e-08 0.587785 0
-2.514e-08 0.809017 0
-0.25 0.559017 0
-0.181636 0.769421 0
-0.293893 0.293893 0
-0.25 0.559017 0
-0.559017 0.25 0
-0.475528 0.475528 0
-0.25 0.559017 0
-0.181636 0.769421 0
-0.475528 0.475528 0
-0.345491 0.654508 0
-0.559017 0.25 0
-0.475528 0.475528 0
-0.769421 0.181636 0
-0.654508 0.345491 0
-0.475528 0.475528 0
-0.345491 0.654508 0
-0.654508 0.345491 0
-0.475528 0.475528 0
-0.769421 0.181636 0
-0.654508 0.345491 0
-0.904508 0.0954915 0
-0.769421 0.181636 0
-0.654508 0.345491 0
-0.475528 0.475528 0
-0.769421 0.181636 0
-0.559017 0.25 0
-0.904508 0.0954915 0
-0.769421 0.181636 0
-0.951057 3.78437e-17 0
-0.809017 7.19829e-17 0
-0.769421 0.181636 0
-0.559017 0.25 0
-0.809017 7.19829e-17 0
-0.587785 9.9076e-17 0
0.587785 0 0
0.309017 0 0
0.559017 0.25 0
0.293893 0.293893 0
0.309017 0 0
1.22465e-16 0 0
0.293893 0.293893 0
1.16471e-16 0.309017 0
0.559017 0.25 0
0.293893 0.293893 0
0.475528 0.475528 0
0.25 0.559017 0
0.293893 0.293893 0
1.16471e-16 0.309017 0
0.25 0.559017 0
9.9076e-17 0.587785 0
0.475528 0.475528 0
0.25 0.559017 0
0.345491 0.654508 0
0.181636 0.769421 0
0.25 0.559017 0
9.9076e-17 0.587785 0
0.181636 0.769421 0
7.19829e-17 0.809017 0
0.345491 0.654508 0
0.181636 0.769421 0
0.181636 0.769421 0
0.0954915 0.904508 0
0.181636 0.769421 0
7.19829e-17 0.809017 0
0.0954915 0.904508 0
3.78437e-17 0.951057 0
0.181636 0.769421 0
0.0954915 0.904508 0
-2.514e-08 0.809017 0
-1.83993e-08 0.951057 0
0.0954915 0.904508 0
3.78437e-17 0.951057 0
-1.83993e-08 0.951057 0
7.4988e-33 1 0
-2.514e-08 0.809017 0
-1.83993e-08 0.951057 0
-0.181636 0.769421 0
-0.0954915 0.904509 0
-1.83993e-08 0.951057 0
7.4988e-33 1 0
-0.0954915 0.904509 0
-3.78437e-17 0.951057 0
-0.181636 0.769421 0
-0.0954915 0.904509 0
-0.345491 0.654508 0
-0.181636 0.769421 0
-0.0954915 0.904509 0
-3.78437e-17 0.951057 0
-0.181636 0.769421 0
-7.19829e-17 0.809017 0
-0.345491 0.654508 0
-0.181636 0.769421 0
-0.475528 0.475528 0
-0.25 0.559017 0
-0.181636 0.769421 0
-7.19829e-17 0.809017 0
-0.25 0.559017 0
-9.9076e-17 0.587785 0
-0.475528 0.475528 0
-0.25 0.559017 0
-0.559017 0.25 0
-0.293893 0.293893 0
-0.25 0.559017 0
-9.9076e-17 0.587785 0
-0.293893 0.293893 0
-1.16471e-16 0.309017 0
-0.559017 0.25 0
-0.293893 0.293893 0
-0.587785 9.9076e-17 0
-0.309017 1.16471e-16 0
-0.293893 0.293893 0
-1.16471e-16 0.309017 0
-0.309017 1.16471e-16 0
-1.22465e-16 1.22465e-16 0
VECTORS velocity_error double
0 0 0
0 0 0
0 0 0
3.03322e-08 -8.03497e-10 0
0 0 0
0 0 0
3.03322e-08 -8.03497e-10 0
3.54536e-08 -2.02117e-08 0
0 0 0
3.03322e-08 -8.03497e-10 0
0 0 0
1.25352e-08 9.54995e-09 0
3.03322e-08 -8.03497e-10 0
3.54536e-08 -2.02117e-08 0
1.25352e-08 9.54995e-09 0
3.06305e-08 -2.39353e-08 0
0 0 0
1.25352e-08 9.54995e-09 0
0 0 0
7.99114e-09 1.54203e-08 0
1.25352e-08 9.54995e-09 0
3.06305e-08 -2.39353e-08 0
7.99114e-09 1.54203e-08 0
2.65871e-08 -9.84636e-09 0
0 0 0
7.99114e-09 1.54203e-08 0
0 0 0
5.73962e-09 7.41084e-09 0
7.99114e-09 1.54203e-08 0
2.65871e-08 -9.84636e-09 0
5.73962e-09 7.41084e-09 0
1.72625e-08 1.9243e-09 0
0 0 0
5.73962e-09 7.41084e-09 0
0 0 0
1.58698e-09 -7.87379e-09 0
5.73962e-09 7.41084e-09 0
1.72625e-08 1.9243e-09 0
1.58698e-09 -7.87379e-09 0
6.65618e-09 -5.78735e-09 0
0 0 0
1.58698e-09 -7.87379e-09 0
0 0 0
-3.63021e-09 -2.12808e-08 0
1.58698e-09 -7.87379e-09 0
6.65618e-09 -5.78735e-09 0
-3.63021e-09 -2.12808e-08 0
-4.50936e-09 -2.02733e-08 0
0 0 0
-3.63021e-09 -2.12808e-08 0
0 0 0
-7.45341e-09 -2.76885e-08 0
-3.63021e-09 -2.12808e-08 0
-4.50936e-09 -2.02733e-08 0
-7.45341e-09 -2.76885e-08 0
-1.29374e-08 -2.5631e-08 0
0 0 0
-7.45341e-09 -2.76885e-08 0
0 0 0
-7.29374e-09 -2.62913e-08 0
-7.45341e-09 -2.76885e-08 0
-1.29374e-08 -2.5631e-08 0
-7.29374e-09 -2.62913e-08 0
-1.21168e-08 -1.79359e-08 0
0 0 0
-7.29374e-09 -2.62913e-08 0
0 0 0
-2.5203e-09 -1.93904e-08 0
-7.29374e-09 -2.62913e-08 0
-1.21168e-08 -1.79359e-08 0
-2.5203e-09 -1.93904e-08 0
4.97557e-09 -2.60017e-09 0
0 0 0
-2.5203e-09 -1.93904e-08 0
0 0 0
0 0 0
-2.5203e-09 -1.93904e-08 0
4.97557e-09 -2.60017e-09 0
0 0 0
0 0 0
0 0 0
0 0 0
3.54536e-08 -2.02117e-08 0
3.21006e-08 -2.42419e-08 0
0 0 0
0 0 0
3.21006e-08 -2.42419e-08 0
2.11327e-08 -1.70333e-08 0
3.54536e-08 -2.02117e-08 0
3.21006e-08 -2.42419e-08 0
3.06305e-08 -2.39353e-08 0
3.40713e-08 -3.25401e-08 0
3.21006e-08 -2.42419e-08 0
2.11327e-08 -1.70333e-08 0
3.40713e-08 -3.25401e-08 0
2.21805e-08 -2.35432e-08 0
3.06305e-08 -2.39353e-08 0
3.40713e-08 -3.25401e-08 0
2.65871e-08 -9.84636e-09 0
3.38095e-08 -2.26566e-08 0
3.40713e-08 -3.25401e-08 0
2.21805e-08 -2.35432e-08 0
3.38095e-08 -2.26566e-08 0
2.05858e-08 -1.84158e-08 0
2.65871e-08 -9.84636e-09 0
3.38095e-08 -2.26566e-08 0
1.72625e-08 1.9243e-09 0
2.2602e-08 -2.31569e-09 0
3.38095e-08 -2.26566e-08 0
2.05858e-08 -1.84158e-08 0
2.2602e-08 -2.31569e-09 0
1.3155e-08 -4.91314e-09 0
1.72625e-08 1.9243e-09 0
2.2602e-08 -2.31569e-09 0
6.65618e-09 -5.78735e-09 0
9.72693e-09 -2.16394e-09 0
2.2602e-08 -2.31569e-09 0
1.3155e-08 -4.91314e-09 0
9.72693e-09 -2.16394e-09 0
4.28387e-09 -1.62375e-09 0
6.65618e-09 -5.78735e-09 0
9.72693e-09 -2.16394e-09 0
-4.50936e-09 -2.02733e-08 0
-2.05168e-09 -1.64128e-08 0
9.72693e-09 -2.16394e-09 0
4.28387e-09 -1.62375e-09 0
-2.05168e-09 -1.64128e-08 0
-4.51668e-10 -9.61021e-09 0
-4.50936e-09 -2.02733e-08 0
-2.05168e-09 -1.64128e-08 0
-1.29374e-08 -2.5631e-08 0
-1.03166e-08 -2.06783e-08 0
-2.05168e-09 -1.64128e-08 0
-4.51668e-10 -9.61021e-09 0
-1.03166e-08 -2.06783e-08 0
-1.63367e-09 -7.99904e-09 0
-1.29374e-08 -2.5631e-08 0
-1.03166e-08 -2.06783e-08 0
-1.21168e-08 -1.79359e-08 0
-5.93757e-09 -9.11198e-09 0
-1.03166e-08 -2.06783e-08 0
-1.63367e-09 -7.99904e-09 0
-5.93757e-09 -9.11198e-09 0
1.02336e-09 2.52715e-09 0
-1.21168e-08 -1.79359e-08 0
-5.93757e-09 -9.11198e-09 0
4.97557e-09 -2.60017e-09 0
1.15721e-08 7.17298e-09 0
-5.93757e-09 -9.11198e-09 0
1.02336e-09 2.52715e-09 0
1.15721e-08 7.17298e-09 0
6.68448e-09 1.1114e-08 0
4.97557e-09 -2.60017e-09 0
1.15721e-08 7.17298e-09 0
0 0 0
0 0 0
1.15721e-08 7.17298e-09 0
6.68448e-09 1.1114e-08 0
0 0 0
0 0 0
0 0 0
0 0 0
2.11327e-08 -1.70333e-08 0
4.9362e-09 -4.61603e-09 0
0 0 0
0 0 0
4.9362e-09 -4.61603e-09 0
-1.04358e-08 8.04955e-09 0
2.11327e-08 -1.70333e-08 0
4.9362e-09 -4.61603e-09 0
2.21805e-08 -2.35432e-08 0
3.34103e-09 -6.44491e-09 0
4.9362e-09 -4.61603e-09 0
-1.04358e-08 8.04955e-09 0
3.34103e-09 -6.44491e-09 0
-3.75433e-09 1.30427e-08 0
2.21805e-08 -2.35432e-08 0
3.34103e-09 -6.44491e-09 0
2.05858e-08 -1.84158e-08 0
-4.27036e-10 -5.28574e-09 0
3.34103e-09 -6.44491e-09 0
-3.75433e-09 1.30427e-08 0
-4.27036e-10 -5.28574e-09 0
2.79921e-09 1.38332e-08 0
2.05858e-08 -1.84158e-08 0
-4.27036e-10 -5.28574e-09 0
1.3155e-08 -4.91314e-09 0
-2.97311e-09 -3.29458e-09 0
-4.27036e-10 -5.28574e-09 0
2.79921e-09 1.38332e-08 0
-2.97311e-09 -3.29458e-09 0
7.44628e-09 7.57574e-09 0
1.3155e-08 -4.91314e-09 0
-2.97311e-09 -3.29458e-09 0
4.28387e-09 -1.62375e-09 0
-3.41055e-09 -3.50125e-09 0
-2.97311e-09 -3.29458e-09 0
7.44628e-09 7.57574e-09 0
-3.41055e-09 -3.50125e-09 0
5.89662e-09 -1.801e-09 0
4.28387e-09 -1.62375e-09 0
-3.41055e-09 -3.50125e-09 0
-4.51668e-10 -9.61021e-09 0
-2.79587e-09 -1.68183e-09 0
-3.41055e-09 -3.50125e-09 0
5.89662e-09 -1.801e-09 0
-2.79587e-09 -1.68183e-09 0
-4.03095e-09 2.98481e-09 0
-4.51668e-10 -9.61021e-09 0
-2.79587e-09 -1.68183e-09 0
-1.63367e-09 -7.99904e-09 0
-3.61778e-09 5.54255e-09 0
-2.79587e-09 -1.68183e-09 0
-4.03095e-09 2.98481e-09 0
-3.61778e-09 5.54255e-09 0
-1.46088e-08 1.50499e-08 0
-1.63367e-09 -7.99904e-09 0
-3.61778e-09 5.54255e-09 0
1.02336e-09 2.52715e-09 0
-5.92583e-09 1.20389e-08 0
-3.61778e-09 5.54255e-09 0
-1.46088e-08 1.50499e-08 0
-5.92583e-09 1.20389e-08 0
-1.99718e-08 1.8042e-08 0
1.02336e-09 2.52715e-09 0
-5.92583e-09 1.20389e-08 0
6.68448e-09 1.1114e-08 0
-6.47745e-09 1.21963e-08 0
-5.92583e-09 1.20389e-08 0
-1.99718e-08 1.8042e-08 0
-6.47745e-09 1.21963e-08 0
-2.02232e-08 1.11553e-08 0
6.68448e-09 1.1114e-08 0
-6.47745e-09 1.21963e-08 0
0 0 0
0 0 0
-6.47745e-09 1.21963e-08 0
-2.02232e-08 1.11553e-08 0
0 0 0
0 0 0
0 0 0
0 0 0
-1.04358e-08 8.04955e-09 0
-1.65073e-08 1.7775e-08 0
0 0 0
0 0 0
-1.65073e-08 1.7775e-08 0
-9.42771e-09 2.53092e-08 0
-1.04358e-08 8.04955e-09 0
-1.65073e-08 1.7775e-08 0
-3.75433e-09 1.30427e-08 0
1.08167e-08 3.11314e-08 0
-1.65073e-08 1.7775e-08 0
-9.42771e-09 2.53092e-08 0
1.08167e-08 3.11314e-08 0
2.38832e-08 3.93647e-08 0
-3.75433e-09 1.30427e-08 0
1.08167e-08 3.11314e-08 0
2.79921e-09 1.38332e-08 0
2.97965e-08 3.28303e-08 0
1.08167e-08 3.11314e-08 0
2.38832e-08 3.93647e-08 0
2.97965e-08 3.28303e-08 0
3.8589e-08 3.69447e-08 0
2.79921e-09 1.38332e-08 0
2.97965e-08 3.28303e-08 0
7.44628e-09 7.57574e-09 0
3.14141e-08 1.87818e-08 0
2.97965e-08 3.28303e-08 0
3.8589e-08 3.69447e-08 0
3.14141e-08 1.87818e-08 0
3.70758e-08 2.18789e-08 0
7.44628e-09 7.57574e-09 0
3.14141e-08 1.87818e-08 0
5.89662e-09 -1.801e-09 0
2.05552e-08 1.0268e-09 0
3.14141e-08 1.87818e-08 0
3.70758e-08 2.18789e-08 0
2.05552e-08 1.0268e-09 0
2.514e-08 3.47951e-09 0
5.89662e-09 -1.801e-09 0
2.05552e-08 1.0268e-09 0
-4.03095e-09 2.98481e-09 0
7.69765e-10 2.11718e-09 0
2.05552e-08 1.0268e-09 0
2.514e-08 3.47951e-09 0
7.69765e-10 2.11718e-09 0
6.74691e-09 -2.85339e-09 0
-4.03095e-09 2.98481e-09 0
7.69765e-10 2.11718e-09 0
-1.46088e-08 1.50499e-08 0
-1.96991e-08 1.74565e-08 0
7.69765e-10 2.11718e-09 0
6.74691e-09 -2.85339e-09 0
-1.96991e-08 1.74565e-08 0
-1.36563e-08 6.9079e-09 0
-1.46088e-08 1.50499e-08 0
-1.96991e-08 1.74565e-08 0
-1.99718e-08 1.8042e-08 0
-2.85044e-08 1.89863e-08 0
-1.96991e-08 1.74565e-08 0
-1.36563e-08 6.9079e-09 0
-2.85044e-08 1.89863e-08 0
-2.66701e-08 1.20648e-08 0
-1.99718e-08 1.8042e-08 0
-2.85044e-08 1.89863e-08 0
-2.02232e-08 1.11553e-08 0
-2.90283e-08 8.00298e-09 0
-2.85044e-08 1.89863e-08 0
-2.66701e-08 1.20648e-08 0
-2.90283e-08 8.00298e-09 0
-3.06953e-08 3.59003e-09 0
-2.02232e-08 1.11553e-08 0
-2.90283e-08 8.00298e-09 0
0 0 0
0 0 0
-2.90283e-08 8.00298e-09 0
-3.06953e-08 3.59003e-09 0
0 0 0
0 0 0
0 0 0
0 0 0
-9.42771e-09 2.53092e-08 0
-7.33351e-10 3.58676e-08 0
0 0 0
0 0 0
-7.33351e-10 3.58676e-08 0
0 0 0
-9.42771e-09 2.53092e-08 0
-7.33351e-10 3.58676e-08 0
2.38832e-08 3.93647e-08 0
1.6508e-08 3.98575e-08 0
-7.33351e-10 3.58676e-08 0
0 0 0
1.6508e-08 3.98575e-08 0
0 0 0
2.38832e-08 3.93647e-08 0
1.6508e-08 3.98575e-08 0
3.8589e-08 3.69447e-08 0
2.47914e-08 3.34404e-08 0
1.6508e-08 3.98575e-08 0
0 0 0
2.47914e-08 3.34404e-08 0
0 0 0
3.8589e-08 3.69447e-08 0
2.47914e-08 3.34404e-08 0
3.70758e-08 2.18789e-08 0
2.45584e-08 2.00751e-08 0
2.47914e-08 3.34404e-08 0
0 0 0
2.45584e-08 2.00751e-08 0
0 0 0
3.70758e-08 2.18789e-08 0
2.45584e-08 2.00751e-08 0
2.514e-08 3.47951e-09 0
1.83993e-08 3.53986e-09 0
2.45584e-08 2.00751e-08 0
0 0 0
1.83993e-08 3.53986e-09 0
0 0 0
2.514e-08 3.47951e-09 0
1.83993e-08 3.53986e-09 0
6.74691e-09 -2.85339e-09 0
8.80409e-09 -9.70948e-09 0
1.83993e-08 3.53986e-09 0
0 0 0
8.80409e-09 -9.70948e-09 0
0 0 0
6.74691e-09 -2.85339e-09 0
8.80409e-09 -9.70948e-09 0
-1.36563e-08 6.9079e-09 0
-2.61091e-09 -1.26591e-08 0
8.80409e-09 -9.70948e-09 0
0 0 0
-2.61091e-09 -1.26591e-08 0
0 0 0
-1.36563e-08 6.9079e-09 0
-2.61091e-09 -1.26591e-08 0
-2.66701e-08 1.20648e-08 0
-1.53742e-08 -4.85333e-09 0
-2.61091e-09 -1.26591e-08 0
0 0 0
-1.53742e-08 -4.85333e-09 0
0 0 0
-2.66701e-08 1.20648e-08 0
-1.53742e-08 -4.85333e-09 0
-3.06953e-08 3.59003e-09 0
-2.49259e-08 9.83449e-10 0
-1.53742e-08 -4.85333e-09 0
0 0 0
-2.49259e-08 9.83449e-10 0
0 0 0
-3.06953e-08 3.59003e-09 0
-2.49259e-08 9.83449e-10 0
0 0 0
0 0 0
-2.49259e-08 9.83449e-10 0
0 0 0
0 0 0
0 0 0
SCALARS pressure double 1
LOOKUP_TABLE default
5.8221e-07 -7.02198e-07 0.309013 0.293889 -7.02198e-07 -4.45311e-07 0.293889 0.249997 0.309013 0.293889 0.587778 0.559011 0.293889 0.249997 0.559011 0.475523 0.587778 0.559011 0.809008 0.769412 0.559011 0.475523 0.769412 0.654501 0.809008 0.769412 0.951046 0.904498 0.769412 0.654501 0.904498 0.769412 0.951046 0.904498 0.999988 0.951046 0.904498 0.769412 0.951046 0.809008 0.999988 0.951046 0.951046 0.904498 0.951046 0.809008 0.904498 0.769412 0.951046 0.904498 0.809008 0.769412 0.904498 0.769412 0.769412 0.654501 0.809008 0.769412 0.587778 0.559011 0.769412 0.654501 0.559011 0.475523 0.587778 0.559011 0.309013 0.293889 0.559011 0.475523 0.293889 0.249997 0.309013 0.293889 5.35052e-07 -7.4265e-07 0.293889 0.249997 -7.4265e-07 -4.8223e-07 -4.45311e-07 -3.43296e-07 0.249997 0.181634 -3.43296e-07 -1.80436e-07 0.181634 0.0954904 0.249997 0.181634 0.475523 0.345488 0.181634 0.0954904 0.345488 0.181634 0.475523 0.345488 0.654501 0.475523 0.345488 0.181634 0.475523 0.249997 0.654501 0.475523 0.769412 0.559011 0.475523 0.249997 0.559011 0.293889 0.769412 0.559011 0.809008 0.587778 0.559011 0.293889 0.587778 0.309013 0.809008 0.587778 0.769412 0.559011 0.587778 0.309013 0.559011 0.293889 0.769412 0.559011 0.654501 0.475523 0.559011 0.293889 0.475523 0.249997 0.654501 0.475523 0.475523 0.345488 0.475523 0.249997 0.345488 0.181634 0.475523 0.345488 0.249997 0.181634 0.345488 0.181634 0.181634 0.0954904 0.249997 0.181634 -4.8223e-07 -3.66154e-07 0.181634 0.0954904 -3.66154e-07 -1.9301e-07 -1.80436e-07 2.35042e-10 0.0954904 -5.93768e-09 2.35042e-10 1.83904e-07 -5.93768e-09 -0.0954904 0.0954904 -5.93768e-09 0.181634 -8.29793e-09 -5.93768e-09 -0.0954904 -8.29793e-09 -0.181634 0.181634 -8.29793e-09 0.249997 -9.81802e-09 -8.29793e-09 -0.181634 -9.81802e-09 -0.249997 0.249997 -9.81802e-09 0.293889 -1.06579e-08 -9.81802e-09 -0.249997 -1.06579e-08 -0.293889 0.293889 -1.06579e-08 0.309013 -1.06258e-08 -1.06579e-08 -0.293889 -1.06258e-08 -0.309013 0.309013 -1.06258e-08 0.293889 -9.91437e-09 -1.06258e-08 -0.309013 -9.91437e-09 -0.293889 0.293889 -9.91437e-09 0.249997 -8.73649e-09 -9.91437e-09 -0.293889 -8.73649e-09 -0.249997 0.249997 -8.73649e-09 0.181634 -7.40825e-09 -8.73649e-09 -0.249997 -7.40825e-09 -0.181634 0.181634 -7.40825e-09 0.0954904 -5.62248e-09 -7.40825e-09 -0.181634 -5.62248e-09 -0.0954904 0.0954904 -5.62248e-09 -1.9301e-07 -3.36995e-09 -5.62248e-09 -0.0954904 -3.36995e-09 1.88815e-07 1.83904e-07 3.5236e-07 -0.0954904 -0.181634 3.5236e-07 4.61602e-07 -0.181634 -0.249997 -0.0954904 -0.181634 -0.181634 -0.345488 -0.181634 -0.249997 -0.345488 -0.475523 -0.181634 -0.345488 -0.249997 -0.475523 -0.345488 -0.475523 -0.475523 -0.654501 -0.249997 -0.475523 -0.293889 -0.559011 -0.475523 -0.654501 -0.559011 -0.769412 -0.293889 -0.559011 -0.309013 -0.587778 -0.559011 -0.769412 -0.587778 -0.809008 -0.309013 -0.587778 -0.293889 -0.559011 -0.587778 -0.809008 -0.559011 -0.769412 -0.293889 -0.559011 -0.249997 -0.475523 -0.559011 -0.769412 -0.475523 -0.654501 -0.249997 -0.475523 -0.181634 -0.345488 -0.475523 -0.654501 -0.345488 -0.475523 -0.181634 -0.345488 -0.0954904 -0.181634 -0.345488 -0.475523 -0.181634 -0.249997 -0.0954904 -0.181634 1.88815e-07 3.67165e-07 -0.181634 -0.249997 3.67165e-07 4.8516e-07 4.61602e-07 6.77704e-07 -0.249997 -0.293889 6.77704e-07 -4.03961e-07 -0.293889 -0.309013 -0.249997 -0.293889 -0.475523 -0.559011 -0.293889 -0.309013 -0.559011 -0.587778 -0.475523 -0.559011 -0.654501 -0.769412 -0.559011 -0.587778 -0.769412 -0.809008 -0.654501 -0.769412 -0.769412 -0.904498 -0.769412 -0.809008 -0.904498 -0.951046 -0.769412 -0.904498 -0.809008 -0.951046 -0.904498 -0.951046 -0.951046 -0.999988 -0.809008 -0.951046 -0.769412 -0.904498 -0.951046 -0.999988 -0.904498 -0.951046 -0.769412 -0.904498 -0.654501 -0.769412 -0.904498 -0.951046 -0.769412 -0.809008 -0.654501 -0.769412 -0.475523 -0.559011 -0.769412 -0.809008 -0.559011 -0.587778 -0.475523 -0.559011 -0.249997 -0.293889 -0.559011 -0.587778 -0.293889 -0.309013 -0.249997 -0.293889 4.8516e-07 7.23166e-07 -0.293889 -0.309013 7.23166e-07 -4.51119e-07 
SCALARS pressure_error double 1
LOOKUP_TABLE default