# vtk DataFile Version 3.0
#This file was generated by the deal.II library on 2026/6/6 at 13:04:46
ASCII
DATASET UNSTRUCTURED_GRID

POINTS 1600 double
0 0 0
0.05 0 0
0 0.05 0
0.05 0.05 0
0.05 0 0
0.1 0 0
0.05 0.05 0
0.1 0.05 0
0 0.05 0
0.05 0.05 0
0 0.1 0
0.05 0.1 0
0.05 0.05 0
0.1 0.05 0
0.05 0.1 0
0.1 0.1 0
0.1 0 0
0.15 0 0
0.1 0.05 0
0.15 0.05 0
0.15 0 0
0.2 0 0
0.15 0.05 0
0.2 0.05 0
0.1 0.05 0
0.15 0.05 0
0.1 0.1 0
0.15 0.1 0
0.15 0.05 0
0.2 0.05 0
0.15 0.1 0
0.2 0.1 0
0 0.1 0
0.05 0.1 0
0 0.15 0
0.05 0.15 0
0.05 0.1 0
0.1 0.1 0
0.05 0.15 0
0.1 0.15 0
0 0.15 0
0.05 0.15 0
0 0.2 0
0.05 0.2 0
0.05 0.15 0
0.1 0.15 0
0.05 0.2 0
0.1 0.2 0
0.1 0.1 0
0.15 0.1 0
0.1 0.15 0
0.15 0.15 0
0.15 0.1 0
0.2 0.1 0
0.15 0.15 0
0.2 0.15 0
0.1 0.15 0
0.15 0.15 0
0.1 0.2 0
0.15 0.2 0
0.15 0.15 0
0.2 0.15 0
0.15 0.2 0
0.2 0.2 0
0 0.2 0
0.05 0.2 0
0 0.25 0
0.05 0.25 0
0.05 0.2 0
0.1 0.2 0
0.05 0.25 0
0.1 0.25 0
0 0.25 0
0.05 0.25 0
0 0.3 0
0.05 0.3 0
0.05 0.25 0
0.1 0.25 0
0.05 0.3 0
0.1 0.3 0
0.1 0.2 0
0.15 0.2 0
0.1 0.25 0
0.15 0.25 0
0.15 0.2 0
0.2 0.2 0
0.15 0.25 0
0.2 0.25 0
0.1 0.25 0
0.15 0.25 0
0.1 0.3 0
0.15 0.3 0
0.15 0.25 0
0.2 0.25 0
0.15 0.3 0
0.2 0.3 0
0 0.3 0
0.05 0.3 0
0 0.35 0
0.05 0.35 0
0.05 0.3 0
0.1 0.3 0
0.05 0.35 0
0.1 0.35 0
0 0.35 0
0.05 0.35 0
0 0.4 0
0.05 0.4 0
0.05 0.35 0
0.1 0.35 0
0.05 0.4 0
0.1 0.4 0
0.1 0.3 0
0.15 0.3 0
0.1 0.35 0
0.15 0.35 0
0.15 0.3 0
0.2 0.3 0
0.15 0.35 0
0.2 0.35 0
0.1 0.35 0
0.15 0.35 0
0.1 0.4 0
0.15 0.4 0
0.15 0.35 0
0.2 0.35 0
0.15 0.4 0
0.2 0.4 0
0 0.4 0
0.05 0.4 0
0 0.45 0
0.05 0.45 0
0.05 0.4 0
0.1 0.4 0
0.05 0.45 0
0.1 0.45 0
0 0.45 0
0.05 0.45 0
0 0.5 0
0.05 0.5 0
0.05 0.45 0
0.1 0.45 0
0.05 0.5 0
0.1 0.5 0
0.1 0.4 0
0.15 0.4 0
0.1 0.45 0
0.15 0.45 0
0.15 0.4 0
0.2 0.4 0
0.15 0.45 0
0.2 0.45 0
0.1 0.45 0
0.15 0.45 0
0.1 0.5 0
0.15 0.5 0
0.15 0.45 0
0.2 0.45 0
0.15 0.5 0
0.2 0.5 0
0 0.5 0
0.05 0.5 0
0 0.55 0
0.05 0.55 0
0.05 0.5 0
0.1 0.5 0
0.05 0.55 0
0.1 0.55 0
0 0.55 0
0.05 0.55 0
0 0.6 0
0.05 0.6 0
0.05 0.55 0
0.1 0.55 0
0.05 0.6 0
0.1 0.6 0
0.1 0.5 0
0.15 0.5 0
0.1 0.55 0
0.15 0.55 0
0.15 0.5 0
0.2 0.5 0
0.15 0.55 0
0.2 0.55 0
0.1 0.55 0
0.15 0.55 0
0.1 0.6 0
0.15 0.6 0
0.15 0.55 0
0.2 0.55 0
0.15 0.6 0
0.2 0.6 0
0 0.6 0
0.05 0.6 0
0 0.65 0
0.05 0.65 0
0.05 0.6 0
0.1 0.6 0
0.05 0.65 0
0.1 0.65 0
0 0.65 0
0.05 0.65 0
0 0.7 0
0.05 0.7 0
0.05 0.65 0
0.1 0.65 0
0.05 0.7 0
0.1 0.7 0
0.1 0.6 0
0.15 0.6 0
0.1 0.65 0
0.15 0.65 0
0.15 0.6 0
0.2 0.6 0
0.15 0.65 0
0.2 0.65 0
0.1 0.65 0
0.15 0.65 0
0.1 0.7 0
0.15 0.7 0
0.15 0.65 0
0.2 0.65 0
0.15 0.7 0
0.2 0.7 0
0 0.7 0
0.05 0.7 0
0 0.75 0
0.05 0.75 0
0.05 0.7 0
0.1 0.7 0
0.05 0.75 0
0.1 0.75 0
0 0.75 0
0.05 0.75 0
0 0.8 0
0.05 0.8 0
0.05 0.75 0
0.1 0.75 0
0.05 0.8 0
0.1 0.8 0
0.1 0.7 0
0.15 0.7 0
0.1 0.75 0
0.15 0.75 0
0.15 0.7 0
0.2 0.7 0
0.15 0.75 0
0.2 0.75 0
0.1 0.75 0
0.15 0.75 0
0.1 0.8 0
0.15 0.8 0
0.15 0.75 0
0.2 0.75 0
0.15 0.8 0
0.2 0.8 0
0 0.8 0
0.05 0.8 0
0 0.85 0
0.05 0.85 0
0.05 0.8 0
0.1 0.8 0
0.05 0.85 0
0.1 0.85 0
0 0.85 0
0.05 0.85 0
0 0.9 0
0.05 0.9 0
0.05 0.85 0
0.1 0.85 0
0.05 0.9 0
0.1 0.9 0
0.1 0.8 0
0.15 0.8 0
0.1 0.85 0
0.15 0.85 0
0.15 0.8 0
0.2 0.8 0
0.15 0.85 0
0.2 0.85 0
0.1 0.85 0
0.15 0.85 0
0.1 0.9 0
0.15 0.9 0
0.15 0.85 0
0.2 0.85 0
0.15 0.9 0
0.2 0.9 0
0 0.9 0
0.05 0.9 0
0 0.95 0
0.05 0.95 0
0.05 0.9 0
0.1 0.9 0
0.05 0.95 0
0.1 0.95 0
0 0.95 0
0.05 0.95 0
0 1 0
0.05 1 0
0.05 0.95 0
0.1 0.95 0
0.05 1 0
0.1 1 0
0.1 0.9 0
0.15 0.9 0
0.1 0.95 0
0.15 0.95 0
0.15 0.9 0
0.2 0.9 0
0.15 0.95 0
0.2 0.95 0
0.1 0.95 0
0.15 0.95 0
0.1 1 0
0.15 1 0
0.15 0.95 0
0.2 0.95 0
0.15 1 0
0.2 1 0
0.2 0 0
0.25 0 0
0.2 0.05 0
0.25 0.05 0
0.25 0 0
0.3 0 0
0.25 0.05 0
0.3 0.05 0
0.2 0.05 0
0.25 0.05 0
0.2 0.1 0
0.25 0.1 0
0.25 0.05 0
0.3 0.05 0
0.25 0.1 0
0.3 0.1 0
0.3 0 0
0.35 0 0
0.3 0.05 0
0.35 0.05 0
0.35 0 0
0.4 0 0
0.35 0.05 0
0.4 0.05 0
0.3 0.05 0
0.35 0.05 0
0.3 0.1 0
0.35 0.1 0
0.35 0.05 0
0.4 0.05 0
0.35 0.1 0
0.4 0.1 0
0.2 0.1 0
0.25 0.1 0
0.2 0.15 0
0.25 0.15 0
0.25 0.1 0
0.3 0.1 0
0.25 0.15 0
0.3 0.15 0
0.2 0.15 0
0.25 0.15 0
0.2 0.2 0
0.25 0.2 0
0.25 0.15 0
0.3 0.15 0
0.25 0.2 0
0.3 0.2 0
0.3 0.1 0
0.35 0.1 0
0.3 0.15 0
0.35 0.15 0
0.35 0.1 0
0.4 0.1 0
0.35 0.15 0
0.4 0.15 0
0.3 0.15 0
0.35 0.15 0
0.3 0.2 0
0.35 0.2 0
0.35 0.15 0
0.4 0.15 0
0.35 0.2 0
0.4 0.2 0
0.2 0.2 0
0.25 0.2 0
0.2 0.25 0
0.25 0.25 0
0.25 0.2 0
0.3 0.2 0
0.25 0.25 0
0.3 0.25 0
0.2 0.25 0
0.25 0.25 0
0.2 0.3 0
0.25 0.3 0
0.25 0.25 0
0.3 0.25 0
0.25 0.3 0
0.3 0.3 0
0.3 0.2 0
0.35 0.2 0
0.3 0.25 0
0.35 0.25 0
0.35 0.2 0
0.4 0.2 0
0.35 0.25 0
0.4 0.25 0
0.3 0.25 0
0.35 0.25 0
0.3 0.3 0
0.35 0.3 0
0.35 0.25 0
0.4 0.25 0
0.35 0.3 0
0.4 0.3 0
0.2 0.3 0
0.25 0.3 0
0.2 0.35 0
0.25 0.35 0
0.25 0.3 0
0.3 0.3 0
0.25 0.35 0
0.3 0.35 0
0.2 0.35 0
0.25 0.35 0
0.2 0.4 0
0.25 0.4 0
0.25 0.35 0
0.3 0.35 0
0.25 0.4 0
0.3 0.4 0
0.3 0.3 0
0.35 0.3 0
0.3 0.35 0
0.35 0.35 0
0.35 0.3 0
0.4 0.3 0
0.35 0.35 0
0.4 0.35 0
0.3 0.35 0
0.35 0.35 0
0.3 0.4 0
0.35 0.4 0
0.35 0.35 0
0.4 0.35 0
0.35 0.4 0
0.4 0.4 0
0.2 0.4 0
0.25 0.4 0
0.2 0.45 0
0.25 0.45 0
0.25 0.4 0
0.3 0.4 0
0.25 0.45 0
0.3 0.45 0
0.2 0.45 0
0.25 0.45 0
0.2 0.5 0
0.25 0.5 0
0.25 0.45 0
0.3 0.45 0
0.25 0.5 0
0.3 0.5 0
0.3 0.4 0
0.35 0.4 0
0.3 0.45 0
0.35 0.45 0
0.35 0.4 0
0.4 0.4 0
0.35 0.45 0
0.4 0.45 0
0.3 0.45 0
0.35 0.45 0
0.3 0.5 0
0.35 0.5 0
0.35 0.45 0
0.4 0.45 0
0.35 0.5 0
0.4 0.5 0
0.2 0.5 0
0.25 0.5 0
0.2 0.55 0
0.25 0.55 0
0.25 0.5 0
0.3 0.5 0
0.25 0.55 0
0.3 0.55 0
0.2 0.55 0
0.25 0.55 0
0.2 0.6 0
0.25 0.6 0
0.25 0.55 0
0.3 0.55 0
0.25 0.6 0
0.3 0.6 0
0.3 0.5 0
0.35 0.5 0
0.3 0.55 0
0.35 0.55 0
0.35 0.5 0
0.4 0.5 0
0.35 0.55 0
0.4 0.55 0
0.3 0.55 0
0.35 0.55 0
0.3 0.6 0
0.35 0.6 0
0.35 0.55 0
0.4 0.55 0
0.35 0.6 0
0.4 0.6 0
0.2 0.6 0
0.25 0.6 0
0.2 0.65 0
0.25 0.65 0
0.25 0.6 0
0.3 0.6 0
0.25 0.65 0
0.3 0.65 0
0.2 0.65 0
0.25 0.65 0
0.2 0.7 0
0.25 0.7 0
0.25 0.65 0
0.3 0.65 0
0.25 0.7 0
0.3 0.7 0
0.3 0.6 0
0.35 0.6 0
0.3 0.65 0
0.35 0.65 0
0.35 0.6 0
0.4 0.6 0
0.35 0.65 0
0.4 0.65 0
0.3 0.65 0
0.35 0.65 0
0.3 0.7 0
0.35 0.7 0
0.35 0.65 0
0.4 0.65 0
0.35 0.7 0
0.4 0.7 0
0.2 0.7 0
0.25 0.7 0
0.2 0.75 0
0.25 0.75 0
0.25 0.7 0
0.3 0.7 0
0.25 0.75 0
0.3 0.75 0
0.2 0.75 0
0.25 0.75 0
0.2 0.8 0
0.25 0.8 0
0.25 0.75 0
0.3 0.75 0
0.25 0.8 0
0.3 0.8 0
0.3 0.7 0
0.35 0.7 0
0.3 0.75 0
0.35 0.75 0
0.35 0.7 0
0.4 0.7 0
0.35 0.75 0
0.4 0.75 0
0.3 0.75 0
0.35 0.75 0
0.3 0.8 0
0.35 0.8 0
0.35 0.75 0
0.4 0.75 0
0.35 0.8 0
0.4 0.8 0
0.2 0.8 0
0.25 0.8 0
0.2 0.85 0
0.25 0.85 0
0.25 0.8 0
0.3 0.8 0
0.25 0.85 0
0.3 0.85 0
0.2 0.85 0
0.25 0.85 0
0.2 0.9 0
0.25 0.9 0
0.25 0.85 0
0.3 0.85 0
0.25 0.9 0
0.3 0.9 0
0.3 0.8 0
0.35 0.8 0
0.3 0.85 0
0.35 0.85 0
0.35 0.8 0
0.4 0.8 0
0.35 0.85 0
0.4 0.85 0
0.3 0.85 0
0.35 0.85 0
0.3 0.9 0
0.35 0.9 0
0.35 0.85 0
0.4 0.85 0
0.35 0.9 0
0.4 0.9 0
0.2 0.9 0
0.25 0.9 0
0.2 0.95 0
0.25 0.95 0
0.25 0.9 0
0.3 0.9 0
0.25 0.95 0
0.3 0.95 0
0.2 0.95 0
0.25 0.95 0
0.2 1 0
0.25 1 0
0.25 0.95 0
0.3 0.95 0
0.25 1 0
0.3 1 0
0.3 0.9 0
0.35 0.9 0
0.3 0.95 0
0.35 0.95 0
0.35 0.9 0
0.4 0.9 0
0.35 0.95 0
0.4 0.95 0
0.3 0.95 0
0.35 0.95 0
0.3 1 0
0.35 1 0
0.35 0.95 0
0.4 0.95 0
0.35 1 0
0.4 1 0
0.4 0 0
0.45 0 0
0.4 0.05 0
0.45 0.05 0
0.45 0 0
0.5 0 0
0.45 0.05 0
0.5 0.05 0
0.4 0.05 0
0.45 0.05 0
0.4 0.1 0
0.45 0.1 0
0.45 0.05 0
0.5 0.05 0
0.45 0.1 0
0.5 0.1 0
0.5 0 0
0.55 0 0
0.5 0.05 0
0.55 0.05 0
0.55 0 0
0.6 0 0
0.55 0.05 0
0.6 0.05 0
0.5 0.05 0
0.55 0.05 0
0.5 0.1 0
0.55 0.1 0
0.55 0.05 0
0.6 0.05 0
0.55 0.1 0
0.6 0.1 0
0.4 0.1 0
0.45 0.1 0
0.4 0.15 0
0.45 0.15 0
0.45 0.1 0
0.5 0.1 0
0.45 0.15 0
0.5 0.15 0
0.4 0.15 0
0.45 0.15 0
0.4 0.2 0
0.45 0.2 0
0.45 0.15 0
0.5 0.15 0
0.45 0.2 0
0.5 0.2 0
0.5 0.1 0
0.55 0.1 0
0.5 0.15 0
0.55 0.15 0
0.55 0.1 0
0.6 0.1 0
0.55 0.15 0
0.6 0.15 0
0.5 0.15 0
0.55 0.15 0
0.5 0.2 0
0.55 0.2 0
0.55 0.15 0
0.6 0.15 0
0.55 0.2 0
0.6 0.2 0
0.4 0.2 0
0.45 0.2 0
0.4 0.25 0
0.45 0.25 0
0.45 0.2 0
0.5 0.2 0
0.45 0.25 0
0.5 0.25 0
0.4 0.25 0
0.45 0.25 0
0.4 0.3 0
0.45 0.3 0
0.45 0.25 0
0.5 0.25 0
0.45 0.3 0
0.5 0.3 0
0.5 0.2 0
0.55 0.2 0
0.5 0.25 0
0.55 0.25 0
0.55 0.2 0
0.6 0.2 0
0.55 0.25 0
0.6 0.25 0
0.5 0.25 0
0.55 0.25 0
0.5 0.3 0
0.55 0.3 0
0.55 0.25 0
0.6 0.25 0
0.55 0.3 0
0.6 0.3 0
0.4 0.3 0
0.45 0.3 0
0.4 0.35 0
0.45 0.35 0
0.45 0.3 0
0.5 0.3 0
0.45 0.35 0
0.5 0.35 0
0.4 0.35 0
0.45 0.35 0
0.4 0.4 0
0.45 0.4 0
0.45 0.35 0
0.5 0.35 0
0.45 0.4 0
0.5 0.4 0
0.5 0.3 0
0.55 0.3 0
0.5 0.35 0
0.55 0.35 0
0.55 0.3 0
0.6 0.3 0
0.55 0.35 0
0.6 0.35 0
0.5 0.35 0
0.55 0.35 0
0.5 0.4 0
0.55 0.4 0
0.55 0.35 0
0.6 0.35 0
0.55 0.4 0
0.6 0.4 0
0.4 0.4 0
0.45 0.4 0
0.4 0.45 0
0.45 0.45 0
0.45 0.4 0
0.5 0.4 0
0.45 0.45 0
0.5 0.45 0
0.4 0.45 0
0.45 0.45 0
0.4 0.5 0
0.45 0.5 0
0.45 0.45 0
0.5 0.45 0
0.45 0.5 0
0.5 0.5 0
0.5 0.4 0
0.55 0.4 0
0.5 0.45 0
0.55 0.45 0
0.55 0.4 0
0.6 0.4 0
0.55 0.45 0
0.6 0.45 0
0.5 0.45 0
0.55 0.45 0
0.5 0.5 0
0.55 0.5 0
0.55 0.45 0
0.6 0.45 0
0.55 0.5 0
0.6 0.5 0
0.4 0.5 0
0.45 0.5 0
0.4 0.55 0
0.45 0.55 0
0.45 0.5 0
0.5 0.5 0
0.45 0.55 0
0.5 0.55 0
0.4 0.55 0
0.45 0.55 0
0.4 0.6 0
0.45 0.6 0
0.45 0.55 0
0.5 0.55 0
0.45 0.6 0
0.5 0.6 0
0.5 0.5 0
0.55 0.5 0
0.5 0.55 0
0.55 0.55 0
0.55 0.5 0
0.6 0.5 0
0.55 0.55 0
0.6 0.55 0
0.5 0.55 0
0.55 0.55 0
0.5 0.6 0
0.55 0.6 0
0.55 0.55 0
0.6 0.55 0
0.55 0.6 0
0.6 0.6 0
0.4 0.6 0
0.45 0.6 0
0.4 0.65 0
0.45 0.65 0
0.45 0.6 0
0.5 0.6 0
0.45 0.65 0
0.5 0.65 0
0.4 0.65 0
0.45 0.65 0
0.4 0.7 0
0.45 0.7 0
0.45 0.65 0
0.5 0.65 0
0.45 0.7 0
0.5 0.7 0
0.5 0.6 0
0.55 0.6 0
0.5 0.65 0
0.55 0.65 0
0.55 0.6 0
0.6 0.6 0
0.55 0.65 0
0.6 0.65 0
0.5 0.65 0
0.55 0.65 0
0.5 0.7 0
0.55 0.7 0
0.55 0.65 0
0.6 0.65 0
0.55 0.7 0
0.6 0.7 0
0.4 0.7 0
0.45 0.7 0
0.4 0.75 0
0.45 0.75 0
0.45 0.7 0
0.5 0.7 0
0.45 0.75 0
0.5 0.75 0
0.4 0.75 0
0.45 0.75 0
0.4 0.8 0
0.45 0.8 0
0.45 0.75 0
0.5 0.75 0
0.45 0.8 0
0.5 0.8 0
0.5 0.7 0
0.55 0.7 0
0.5 0.75 0
0.55 0.75 0
0.55 0.7 0
0.6 0.7 0
0.55 0.75 0
0.6 0.75 0
0.5 0.75 0
0.55 0.75 0
0.5 0.8 0
0.55 0.8 0
0.55 0.75 0
0.6 0.75 0
0.55 0.8 0
0.6 0.8 0
0.4 0.8 0
0.45 0.8 0
0.4 0.85 0
0.45 0.85 0
0.45 0.8 0
0.5 0.8 0
0.45 0.85 0
0.5 0.85 0
0.4 0.85 0
0.45 0.85 0
0.4 0.9 0
0.45 0.9 0
0.45 0.85 0
[...]
POINT_DATA 1600
VECTORS velocity double
0 0 0
0.156434 0 0
0 -0.156434 0
0.154509 -0.154509 0
0.156434 0 0
0.309017 0 0
0.154509 -0.154509 0
0.305212 -0.148778 0
0 -0.156434 0
0.154509 -0.154509 0
0 -0.309017 0
0.148778 -0.305212 0
0.154509 -0.154509 0
0.305212 -0.148778 0
0.148778 -0.305212 0
0.293893 -0.293893 0
0.309017 0 0
0.45399 0 0
0.305212 -0.148778 0
0.448401 -0.139384 0
0.45399 0 0
0.587785 0 0
0.448401 -0.139384 0
0.580549 -0.126558 0
0.305212 -0.148778 0
0.448401 -0.139384 0
0.293893 -0.293893 0
0.431771 -0.275336 0
0.448401 -0.139384 0
0.580549 -0.126558 0
0.431771 -0.275336 0
0.559017 -0.25 0
0 -0.309017 0
0.148778 -0.305212 0
0 -0.45399 0
0.139384 -0.448401 0
0.148778 -0.305212 0
0.293893 -0.293893 0
0.139384 -0.448401 0
0.275336 -0.431771 0
0 -0.45399 0
0.139384 -0.448401 0
0 -0.587785 0
0.126558 -0.580549 0
0.139384 -0.448401 0
0.275336 -0.431771 0
0.126558 -0.580549 0
0.25 -0.559017 0
0.293893 -0.293893 0
0.431771 -0.275336 0
0.275336 -0.431771 0
0.404509 -0.404509 0
0.431771 -0.275336 0
0.559017 -0.25 0
0.404509 -0.404509 0
0.523721 -0.367286 0
0.275336 -0.431771 0
0.404509 -0.404509 0
0.25 -0.559017 0
0.367286 -0.523721 0
0.404509 -0.404509 0
0.523721 -0.367286 0
0.367286 -0.523721 0
0.475528 -0.475528 0
0 -0.587785 0
0.126558 -0.580549 0
0 -0.707107 0
0.110616 -0.698401 0
0.126558 -0.580549 0
0.25 -0.559017 0
0.110616 -0.698401 0
0.218508 -0.672499 0
0 -0.707107 0
0.110616 -0.698401 0
0 -0.809017 0
0.0919499 -0.799057 0
0.110616 -0.698401 0
0.218508 -0.672499 0
0.0919499 -0.799057 0
0.181636 -0.769421 0
0.25 -0.559017 0
0.367286 -0.523721 0
0.218508 -0.672499 0
0.32102 -0.630037 0
0.367286 -0.523721 0
0.475528 -0.475528 0
0.32102 -0.630037 0
0.415627 -0.572061 0
0.218508 -0.672499 0
0.32102 -0.630037 0
0.181636 -0.769421 0
0.266849 -0.720839 0
0.32102 -0.630037 0
0.415627 -0.572061 0
0.266849 -0.720839 0
0.345491 -0.654508 0
0 -0.809017 0
0.0919499 -0.799057 0
0 -0.891007 0
0.0710198 -0.880037 0
0.0919499 -0.799057 0
0.181636 -0.769421 0
0.0710198 -0.880037 0
0.140291 -0.847398 0
0 -0.891007 0
0.0710198 -0.880037 0
0 -0.951057 0
0.0483409 -0.939347 0
0.0710198 -0.880037 0
0.140291 -0.847398 0
0.0483409 -0.939347 0
0.0954915 -0.904508 0
0.181636 -0.769421 0
0.266849 -0.720839 0
0.140291 -0.847398 0
0.206107 -0.793893 0
0.266849 -0.720839 0
0.345491 -0.654508 0
0.206107 -0.793893 0
0.266849 -0.720839 0
0.140291 -0.847398 0
0.206107 -0.793893 0
0.0954915 -0.904508 0
0.140291 -0.847398 0
0.206107 -0.793893 0
0.266849 -0.720839 0
0.140291 -0.847398 0
0.181636 -0.769421 0
0 -0.951057 0
0.0483409 -0.939347 0
0 -0.987688 0
0.0244717 -0.975528 0
0.0483409 -0.939347 0
0.0954915 -0.904508 0
0.0244717 -0.975528 0
0.0483409 -0.939347 0
0 -0.987688 0
0.0244717 -0.975528 0
0 -1 0
1.46625e-11 -0.987688 0
0.0244717 -0.975528 0
0.0483409 -0.939347 0
1.46625e-11 -0.987688 0
1.19864e-11 -0.951057 0
0.0954915 -0.904508 0
0.140291 -0.847398 0
0.0483409 -0.939347 0
0.0710198 -0.880037 0
0.140291 -0.847398 0
0.181636 -0.769421 0
0.0710198 -0.880037 0
0.0919499 -0.799057 0
0.0483409 -0.939347 0
0.0710198 -0.880037 0
1.19864e-11 -0.951057 0
5.23106e-12 -0.891007 0
0.0710198 -0.880037 0
0.0919499 -0.799057 0
5.23106e-12 -0.891007 0
-2.04698e-12 -0.809017 0
0 -1 0
1.46625e-11 -0.987688 0
0 -0.987688 0
-0.0244717 -0.975528 0
1.46625e-11 -0.987688 0
1.19864e-11 -0.951057 0
-0.0244717 -0.975528 0
-0.0483409 -0.939347 0
0 -0.987688 0
-0.0244717 -0.975528 0
0 -0.951057 0
-0.0483409 -0.939347 0
-0.0244717 -0.975528 0
-0.0483409 -0.939347 0
-0.0483409 -0.939347 0
-0.0954915 -0.904508 0
1.19864e-11 -0.951057 0
5.23106e-12 -0.891007 0
-0.0483409 -0.939347 0
-0.0710198 -0.880037 0
5.23106e-12 -0.891007 0
-2.04698e-12 -0.809017 0
-0.0710198 -0.880037 0
-0.0919499 -0.799057 0
-0.0483409 -0.939347 0
-0.0710198 -0.880037 0
-0.0954915 -0.904508 0
-0.140291 -0.847398 0
-0.0710198 -0.880037 0
-0.0919499 -0.799057 0
-0.140291 -0.847398 0
-0.181636 -0.769421 0
0 -0.951057 0
-0.0483409 -0.939347 0
0 -0.891007 0
-0.0710198 -0.880037 0
-0.0483409 -0.939347 0
-0.0954915 -0.904508 0
-0.0710198 -0.880037 0
-0.140291 -0.847398 0
0 -0.891007 0
-0.0710198 -0.880037 0
0 -0.809017 0
-0.0919499 -0.799057 0
-0.0710198 -0.880037 0
-0.140291 -0.847398 0
-0.0919499 -0.799057 0
-0.181636 -0.769421 0
-0.0954915 -0.904508 0
-0.140291 -0.847398 0
-0.140291 -0.847398 0
-0.206107 -0.793893 0
-0.140291 -0.847398 0
-0.181636 -0.769421 0
-0.206107 -0.793893 0
-0.266849 -0.720839 0
-0.140291 -0.847398 0
-0.206107 -0.793893 0
-0.181636 -0.769421 0
-0.266849 -0.720839 0
-0.206107 -0.793893 0
-0.266849 -0.720839 0
-0.266849 -0.720839 0
-0.345491 -0.654508 0
0 -0.809017 0
-0.0919499 -0.799057 0
0 -0.707107 0
-0.110616 -0.698401 0
-0.0919499 -0.799057 0
-0.181636 -0.769421 0
-0.110616 -0.698401 0
-0.218508 -0.672499 0
0 -0.707107 0
-0.110616 -0.698401 0
0 -0.587785 0
-0.126558 -0.580549 0
-0.110616 -0.698401 0
-0.218508 -0.672499 0
-0.126558 -0.580549 0
-0.25 -0.559017 0
-0.181636 -0.769421 0
-0.266849 -0.720839 0
-0.218508 -0.672499 0
-0.32102 -0.630037 0
-0.266849 -0.720839 0
-0.345491 -0.654508 0
-0.32102 -0.630037 0
-0.415627 -0.572061 0
-0.218508 -0.672499 0
-0.32102 -0.630037 0
-0.25 -0.559017 0
-0.367286 -0.523721 0
-0.32102 -0.630037 0
-0.415627 -0.572061 0
-0.367286 -0.523721 0
-0.475528 -0.475528 0
0 -0.587785 0
-0.126558 -0.580549 0
0 -0.45399 0
-0.139384 -0.448401 0
-0.126558 -0.580549 0
-0.25 -0.559017 0
-0.139384 -0.448401 0
-0.275336 -0.431771 0
0 -0.45399 0
-0.139384 -0.448401 0
0 -0.309017 0
-0.148778 -0.305212 0
-0.139384 -0.448401 0
-0.275336 -0.431771 0
-0.148778 -0.305212 0
-0.293893 -0.293893 0
-0.25 -0.559017 0
-0.367286 -0.523721 0
-0.275336 -0.431771 0
-0.404509 -0.404509 0
-0.367286 -0.523721 0
-0.475528 -0.475528 0
-0.404509 -0.404509 0
-0.523721 -0.367286 0
-0.275336 -0.431771 0
-0.404509 -0.404509 0
-0.293893 -0.293893 0
-0.431771 -0.275336 0
-0.404509 -0.404509 0
-0.523721 -0.367286 0
-0.431771 -0.275336 0
-0.559017 -0.25 0
0 -0.309017 0
-0.148778 -0.305212 0
0 -0.156434 0
-0.154509 -0.154509 0
-0.148778 -0.305212 0
-0.293893 -0.293893 0
-0.154509 -0.154509 0
-0.305212 -0.148778 0
0 -0.156434 0
-0.154509 -0.154509 0
0 -1.22465e-16 0
-0.156434 -1.20957e-16 0
-0.154509 -0.154509 0
-0.305212 -0.148778 0
-0.156434 -1.20957e-16 0
-0.309017 -1.16471e-16 0
-0.293893 -0.293893 0
-0.431771 -0.275336 0
-0.305212 -0.148778 0
-0.448401 -0.139384 0
-0.431771 -0.275336 0
-0.559017 -0.25 0
-0.448401 -0.139384 0
-0.580549 -0.126558 0
-0.305212 -0.148778 0
-0.448401 -0.139384 0
-0.309017 -1.16471e-16 0
-0.45399 -1.09117e-16 0
-0.448401 -0.139384 0
-0.580549 -0.126558 0
-0.45399 -1.09117e-16 0
-0.587785 -9.9076e-17 0
0.587785 0 0
0.707107 0 0
0.580549 -0.126558 0
0.698401 -0.110616 0
0.707107 0 0
0.809017 0 0
0.698401 -0.110616 0
0.799057 -0.0919499 0
0.580549 -0.126558 0
0.698401 -0.110616 0
0.559017 -0.25 0
0.672499 -0.218508 0
0.698401 -0.110616 0
0.799057 -0.0919499 0
0.672499 -0.218508 0
0.769421 -0.181636 0
0.809017 0 0
0.891007 0 0
0.799057 -0.0919499 0
0.880037 -0.0710198 0
0.891007 0 0
0.951057 0 0
0.880037 -0.0710198 0
0.939347 -0.0483409 0
0.799057 -0.0919499 0
0.880037 -0.0710198 0
0.769421 -0.181636 0
0.847398 -0.140291 0
0.880037 -0.0710198 0
0.939347 -0.0483409 0
0.847398 -0.140291 0
0.904508 -0.0954915 0
0.559017 -0.25 0
0.672499 -0.218508 0
0.523721 -0.367286 0
0.630037 -0.32102 0
0.672499 -0.218508 0
0.769421 -0.181636 0
0.630037 -0.32102 0
0.720839 -0.266849 0
0.523721 -0.367286 0
0.630037 -0.32102 0
0.475528 -0.475528 0
0.572061 -0.415627 0
0.630037 -0.32102 0
0.720839 -0.266849 0
0.572061 -0.415627 0
0.654508 -0.345491 0
0.769421 -0.181636 0
0.847398 -0.140291 0
0.720839 -0.266849 0
0.793893 -0.206107 0
0.847398 -0.140291 0
0.904508 -0.0954915 0
0.793893 -0.206107 0
0.847398 -0.140291 0
0.720839 -0.266849 0
0.793893 -0.206107 0
0.654508 -0.345491 0
0.720839 -0.266849 0
0.793893 -0.206107 0
0.847398 -0.140291 0
0.720839 -0.266849 0
0.769421 -0.181636 0
0.475528 -0.475528 0
0.572061 -0.415627 0
0.415627 -0.572061 0
0.5 -0.5 0
0.572061 -0.415627 0
0.654508 -0.345491 0
0.5 -0.5 0
0.572061 -0.415627 0
0.415627 -0.572061 0
0.5 -0.5 0
0.345491 -0.654508 0
0.415627 -0.572061 0
0.5 -0.5 0
0.572061 -0.415627 0
0.415627 -0.572061 0
0.475528 -0.475528 0
0.654508 -0.345491 0
0.720839 -0.266849 0
0.572061 -0.415627 0
0.630037 -0.32102 0
0.720839 -0.266849 0
0.769421 -0.181636 0
0.630037 -0.32102 0
0.672499 -0.218508 0
0.572061 -0.415627 0
0.630037 -0.32102 0
0.475528 -0.475528 0
0.523721 -0.367286 0
0.630037 -0.32102 0
0.672499 -0.218508 0
0.523721 -0.367286 0
0.559017 -0.25 0
0.345491 -0.654508 0
0.415627 -0.572061 0
0.266849 -0.720839 0
0.32102 -0.630037 0
0.415627 -0.572061 0
0.475528 -0.475528 0
0.32102 -0.630037 0
0.367286 -0.523721 0
0.266849 -0.720839 0
0.32102 -0.630037 0
0.181636 -0.769421 0
0.218508 -0.672499 0
0.32102 -0.630037 0
0.367286 -0.523721 0
0.218508 -0.672499 0
0.25 -0.559017 0
0.475528 -0.475528 0
0.523721 -0.367286 0
0.367286 -0.523721 0
0.404509 -0.404509 0
0.523721 -0.367286 0
0.559017 -0.25 0
0.404509 -0.404509 0
0.431771 -0.275336 0
0.367286 -0.523721 0
0.404509 -0.404509 0
0.25 -0.559017 0
0.275336 -0.431771 0
0.404509 -0.404509 0
0.431771 -0.275336 0
0.275336 -0.431771 0
0.293893 -0.293893 0
0.181636 -0.769421 0
0.218508 -0.672499 0
0.0919499 -0.799057 0
0.110616 -0.698401 0
0.218508 -0.672499 0
0.25 -0.559017 0
0.110616 -0.698401 0
0.126558 -0.580549 0
0.0919499 -0.799057 0
0.110616 -0.698401 0
-2.04698e-12 -0.809017 0
-7.27967e-12 -0.707107 0
0.110616 -0.698401 0
0.126558 -0.580549 0
-7.27967e-12 -0.707107 0
-5.97633e-12 -0.587785 0
0.25 -0.559017 0
0.275336 -0.431771 0
0.126558 -0.580549 0
0.139384 -0.448401 0
0.275336 -0.431771 0
0.293893 -0.293893 0
0.139384 -0.448401 0
0.148778 -0.305212 0
0.126558 -0.580549 0
0.139384 -0.448401 0
-5.97633e-12 -0.587785 0
5.6231e-12 -0.45399 0
0.139384 -0.448401 0
0.148778 -0.305212 0
5.6231e-12 -0.45399 0
2.66057e-11 -0.309017 0
-2.04698e-12 -0.809017 0
-7.27967e-12 -0.707107 0
-0.0919499 -0.799057 0
-0.110616 -0.698401 0
-7.27967e-12 -0.707107 0
-5.97633e-12 -0.587785 0
-0.110616 -0.698401 0
-0.126558 -0.580549 0
-0.0919499 -0.799057 0
-0.110616 -0.698401 0
-0.181636 -0.769421 0
-0.218508 -0.672499 0
-0.110616 -0.698401 0
-0.126558 -0.580549 0
-0.218508 -0.672499 0
-0.25 -0.559017 0
-5.97633e-12 -0.587785 0
5.6231e-12 -0.45399 0
-0.126558 -0.580549 0
-0.139384 -0.448401 0
5.6231e-12 -0.45399 0
2.66057e-11 -0.309017 0
-0.139384 -0.448401 0
-0.148778 -0.305212 0
-0.126558 -0.580549 0
-0.139384 -0.448401 0
-0.25 -0.559017 0
-0.275336 -0.431771 0
-0.139384 -0.448401 0
-0.148778 -0.305212 0
-0.275336 -0.431771 0
-0.293893 -0.293893 0
-0.181636 -0.769421 0
-0.218508 -0.672499 0
-0.266849 -0.720839 0
-0.32102 -0.630037 0
-0.218508 -0.672499 0
-0.25 -0.559017 0
-0.32102 -0.630037 0
-0.367286 -0.523721 0
-0.266849 -0.720839 0
-0.32102 -0.630037 0
-0.345491 -0.654508 0
-0.415627 -0.572061 0
-0.32102 -0.630037 0
-0.367286 -0.523721 0
-0.415627 -0.572061 0
-0.475528 -0.475528 0
-0.25 -0.559017 0
-0.275336 -0.431771 0
-0.367286 -0.523721 0
-0.404509 -0.404509 0
-0.275336 -0.431771 0
-0.293893 -0.293893 0
-0.404509 -0.404509 0
-0.431771 -0.275336 0
-0.367286 -0.523721 0
-0.404509 -0.404509 0
-0.475528 -0.475528 0
-0.523721 -0.367286 0
-0.404509 -0.404509 0
-0.431771 -0.275336 0
-0.523721 -0.367286 0
-0.559017 -0.25 0
-0.345491 -0.654508 0
-0.415627 -0.572061 0
-0.415627 -0.572061 0
-0.5 -0.5 0
-0.415627 -0.572061 0
-0.475528 -0.475528 0
-0.5 -0.5 0
-0.572061 -0.415627 0
-0.415627 -0.572061 0
-0.5 -0.5 0
-0.475528 -0.475528 0
-0.572061 -0.415627 0
-0.5 -0.5 0
-0.572061 -0.415627 0
-0.572061 -0.415627 0
-0.654508 -0.345491 0
-0.475528 -0.475528 0
-0.523721 -0.367286 0
-0.572061 -0.415627 0
-0.630037 -0.32102 0
-0.523721 -0.367286 0
-0.559017 -0.25 0
-0.630037 -0.32102 0
-0.672499 -0.218508 0
-0.572061 -0.415627 0
-0.630037 -0.32102 0
-0.654508 -0.345491 0
-0.720839 -0.266849 0
-0.630037 -0.32102 0
-0.672499 -0.218508 0
-0.720839 -0.266849 0
-0.769421 -0.181636 0
-0.475528 -0.475528 0
-0.572061 -0.415627 0
-0.523721 -0.367286 0
-0.630037 -0.32102 0
-0.572061 -0.415627 0
-0.654508 -0.345491 0
-0.630037 -0.32102 0
-0.720839 -0.266849 0
-0.523721 -0.367286 0
-0.630037 -0.32102 0
-0.559017 -0.25 0
-0.672499 -0.218508 0
-0.630037 -0.32102 0
-0.720839 -0.266849 0
-0.672499 -0.218508 0
-0.769421 -0.181636 0
-0.654508 -0.345491 0
-0.720839 -0.266849 0
-0.720839 -0.266849 0
-0.793893 -0.206107 0
-0.720839 -0.266849 0
-0.769421 -0.181636 0
-0.793893 -0.206107 0
-0.847398 -0.140291 0
-0.720839 -0.266849 0
-0.793893 -0.206107 0
-0.769421 -0.181636 0
-0.847398 -0.140291 0
-0.793893 -0.206107 0
-0.847398 -0.140291 0
-0.847398 -0.140291 0
-0.904508 -0.0954915 0
-0.559017 -0.25 0
-0.672499 -0.218508 0
-0.580549 -0.126558 0
-0.698401 -0.110616 0
-0.672499 -0.218508 0
-0.769421 -0.181636 0
-0.698401 -0.110616 0
-0.799057 -0.0919499 0
-0.580549 -0.126558 0
-0.698401 -0.110616 0
-0.587785 -9.9076e-17 0
-0.707107 -8.65956e-17 0
-0.698401 -0.110616 0
-0.799057 -0.0919499 0
-0.707107 -8.65956e-17 0
-0.809017 -7.19829e-17 0
-0.769421 -0.181636 0
-0.847398 -0.140291 0
-0.799057 -0.0919499 0
-0.880037 -0.0710198 0
-0.847398 -0.140291 0
-0.904508 -0.0954915 0
-0.880037 -0.0710198 0
-0.939347 -0.0483409 0
-0.799057 -0.0919499 0
-0.880037 -0.0710198 0
-0.809017 -7.19829e-17 0
-0.891007 -5.55978e-17 0
-0.880037 -0.0710198 0
-0.939347 -0.0483409 0
-0.891007 -5.55978e-17 0
-0.951057 -3.78437e-17 0
0.951057 0 0
0.987688 0 0
0.939347 -0.0483409 0
0.975528 -0.0244717 0
0.987688 0 0
1 0 0
0.975528 -0.0244717 0
0.987688 3.46e-11 0
0.939347 -0.0483409 0
0.975528 -0.0244717 0
0.904508 -0.0954915 0
0.939347 -0.0483409 0
0.975528 -0.0244717 0
0.987688 3.46e-11 0
0.939347 -0.0483409 0
0.951057 6.13024e-11 0
1 0 0
0.987688 0 0
0.987688 3.46e-11 0
0.975528 0.0244717 0
0.987688 0 0
0.951057 0 0
0.975528 0.0244717 0
0.939347 0.0483409 0
0.987688 3.46e-11 0
0.975528 0.0244717 0
0.951057 6.13024e-11 0
0.939347 0.0483409 0
0.975528 0.0244717 0
0.939347 0.0483409 0
0.939347 0.0483409 0
0.904508 0.0954915 0
0.904508 -0.0954915 0
0.939347 -0.0483409 0
0.847398 -0.140291 0
0.880037 -0.0710198 0
0.939347 -0.0483409 0
0.951057 6.13024e-11 0
0.880037 -0.0710198 0
0.891007 7.86948e-11 0
0.847398 -0.140291 0
0.880037 -0.0710198 0
0.769421 -0.181636 0
0.799057 -0.0919499 0
0.880037 -0.0710198 0
0.891007 7.86948e-11 0
0.799057 -0.0919499 0
0.809017 8.33265e-11 0
0.951057 6.13024e-11 0
0.939347 0.0483409 0
0.891007 7.86948e-11 0
0.880037 0.0710198 0
0.939347 0.0483409 0
0.904508 0.0954915 0
0.880037 0.0710198 0
0.847398 0.140291 0
0.891007 7.86948e-11 0
0.880037 0.0710198 0
0.809017 8.33265e-11 0
0.799057 0.0919499 0
0.880037 0.0710198 0
0.847398 0.140291 0
0.799057 0.0919499 0
0.769421 0.181636 0
0.769421 -0.181636 0
0.799057 -0.0919499 0
0.672499 -0.218508 0
0.698401 -0.110616 0
0.799057 -0.0919499 0
0.809017 8.33265e-11 0
0.698401 -0.110616 0
0.707107 7.46596e-11 0
0.672499 -0.218508 0
0.698401 -0.110616 0
0.559017 -0.25 0
0.580549 -0.126558 0
0.698401 -0.110616 0
0.707107 7.46596e-11 0
0.580549 -0.126558 0
0.587785 5.6698e-11 0
0.809017 8.33265e-11 0
0.799057 0.0919499 0
0.707107 7.46596e-11 0
0.698401 0.110616 0
0.799057 0.0919499 0
0.769421 0.181636 0
0.698401 0.110616 0
0.672499 0.218508 0
0.707107 7.46596e-11 0
0.698401 0.110616 0
0.587785 5.6698e-11 0
0.580549 0.126558 0
0.698401 0.110616 0
0.672499 0.218508 0
0.580549 0.126558 0
0.559017 0.25 0
0.559017 -0.25 0
0.580549 -0.126558 0
0.431771 -0.275336 0
0.448401 -0.139384 0
0.580549 -0.126558 0
0.587785 5.6698e-11 0
0.448401 -0.139384 0
0.45399 3.6679e-11 0
0.431771 -0.275336 0
0.448401 -0.139384 0
0.293893 -0.293893 0
0.305212 -0.148778 0
0.448401 -0.139384 0
0.45399 3.6679e-11 0
0.305212 -0.148778 0
0.309017 2.17924e-11 0
0.587785 5.6698e-11 0
0.580549 0.126558 0
0.45399 3.6679e-11 0
0.448401 0.139384 0
0.580549 0.126558 0
0.559017 0.25 0
0.448401 0.139384 0
0.431771 0.275336 0
0.45399 3.6679e-11 0
0.448401 0.139384 0
0.309017 2.17924e-11 0
0.305212 0.148778 0
0.448401 0.139384 0
0.431771 0.275336 0
0.305212 0.148778 0
0.293893 0.293893 0
0.293893 -0.293893 0
0.305212 -0.148778 0
0.148778 -0.305212 0
0.154509 -0.154509 0
0.305212 -0.148778 0
0.309017 2.17924e-11 0
0.154509 -0.154509 0
0.156434 1.54458e-11 0
0.148778 -0.305212 0
0.154509 -0.154509 0
2.66057e-11 -0.309017 0
4.89754e-11 -0.156434 0
0.154509 -0.154509 0
0.156434 1.54458e-11 0
4.89754e-11 -0.156434 0
5.95411e-11 1.49873e-11 0
0.309017 2.17924e-11 0
0.305212 0.148778 0
0.156434 1.54458e-11 0
0.154509 0.154509 0
0.305212 0.148778 0
0.293893 0.293893 0
0.154509 0.154509 0
0.148778 0.305212 0
0.156434 1.54458e-11 0
0.154509 0.154509 0
5.95411e-11 1.49873e-11 0
4.65008e-11 0.156434 0
0.154509 0.154509 0
0.148778 0.305212 0
4.65008e-11 0.156434 0
6.67957e-12 0.309017 0
2.66057e-11 -0.309017 0
4.89754e-11 -0.156434 0
-0.148778 -0.305212 0
-0.154509 -0.154509 0
4.89754e-11 -0.156434 0
5.95411e-11 1.49873e-11 0
-0.154509 -0.154509 0
-0.156434 1.29711e-11 0
-0.148778 -0.305212 0
-0.154509 -0.154509 0
-0.293893 -0.293893 0
-0.305212 -0.148778 0
-0.154509 -0.154509 0
-0.156434 1.29711e-11 0
-0.305212 -0.148778 0
-0.309017 1.86631e-12 0
5.95411e-11 1.49873e-11 0
4.65008e-11 0.156434 0
-0.156434 1.29711e-11 0
-0.154509 0.154509 0
4.65008e-11 0.156434 0
6.67957e-12 0.309017 0
-0.154509 0.154509 0
-0.148778 0.305212 0
-0.156434 1.29711e-11 0
-0.154509 0.154509 0
-0.309017 1.86631e-12 0
-0.305212 0.148778 0
-0.154509 0.154509 0
-0.148778 0.305212 0
-0.305212 0.148778 0
-0.293893 0.293893 0
-0.293893 -0.293893 0
-0.305212 -0.148778 0
-0.431771 -0.275336 0
-0.448401 -0.139384 0
-0.305212 -0.148778 0
-0.309017 1.86631e-12 0
-0.448401 -0.139384 0
-0.45399 -2.09773e-11 0
-0.431771 -0.275336 0
-0.448401 -0.139384 0
-0.559017 -0.25 0
-0.580549 -0.126558 0
-0.448401 -0.139384 0
-0.45399 -2.09773e-11 0
-0.580549 -0.126558 0
-0.587785 -5.16428e-11 0
-0.309017 1.86631e-12 0
-0.305212 0.148778 0
-0.45399 -2.09773e-11 0
-0.448401 0.139384 0
-0.305212 0.148778 0
-0.293893 0.293893 0
-0.448401 0.139384 0
-0.431771 0.275336 0
-0.45399 -2.09773e-11 0
-0.448401 0.139384 0
-0.587785 -5.16428e-11 0
-0.580549 0.126558 0
-0.448401 0.139384 0
-0.431771 0.275336 0
-0.580549 0.126558 0
-0.559017 0.25 0
-0.559017 -0.25 0
-0.580549 -0.126558 0
-0.672499 -0.218508 0
-0.698401 -0.110616 0
-0.580549 -0.126558 0
-0.587785 -5.16428e-11 0
-0.698401 -0.110616 0
-0.707107 -8.18448e-11 0
-0.672499 -0.218508 0
-0.698401 -0.110616 0
-0.769421 -0.181636 0
-0.799057 -0.0919499 0
-0.698401 -0.110616 0
-0.707107 -8.18448e-11 0
-0.799057 -0.0919499 0
-0.809017 -1.02919e-10 0
-0.587785 -5.16428e-11 0
-0.580549 0.126558 0
-0.707107 -8.18448e-11 0
-0.698401 0.110616 0
-0.580549 0.126558 0
-0.559017 0.25 0
-0.698401 0.110616 0
-0.672499 0.218508 0
-0.707107 -8.18448e-11 0
-0.698401 0.110616 0
-0.809017 -1.02919e-10 0
-0.799057 0.0919499 0
-0.698401 0.110616 0
-0.672499 0.218508 0
-0.799057 0.0919499 0
-0.769421 0.181636 0
-0.769421 -0.181636 0
-0.799057 -0.0919499 0
-0.847398 -0.140291 0
-0.880037 -0.0710198 0
-0.799057 -0.0919499 0
-0.809017 -1.02919e-10 0
-0.880037 -0.0710198 0
-0.891007 -1.09298e-10 0
-0.847398 -0.140291 0
-0.880037 -0.0710198 0
-0.904508 -0.0954915 0
-0.939347 -0.0483409 0
-0.880037 -0.0710198 0
-0.891007 -1.09298e-10 0
-0.939347 -0.0483409 0
-0.951057 -9.94241e-11 0
-0.809017 -1.02919e-10 0
-0.799057 0.0919499 0
-0.891007 -1.09298e-10 0
-0.880037 0.0710198 0
-0.799057 0.0919499 0
-0.769421 0.181636 0
-0.880037 0.0710198 0
-0.847398 0.140291 0
-0.891007 -1.09298e-10 0
-0.880037 0.0710198 0
-0.951057 -9.94241e-11 0
-0.939347 0.0483409 0
-0.880037 0.0710198 0
-0.847398 0.140291 0
-0.939347 0.0483409 0
-0.904508 0.0954915 0
-0.904508 -0.0954915 0
-0.939347 -0.0483409 0
-0.939347 -0.0483409 0
-0.975528 -0.0244717 0
-0.939347 -0.0483409 0
-0.951057 -9.94241e-11 0
-0.975528 -0.0244717 0
-0.987688 -7.07643e-11 0
-0.939347 -0.0483409 0
-0.975528 -0.0244717 0
-0.951057 -3.78437e-17 0
-0.987688 -1.91577e-17 0
-0.975528 -0.0244717 0
-0.987688 -7.07643e-11 0
-0.987688 -1.91577e-17 0
-1 -3.46914e-32 0
-0.951057 -9.94241e-11 0
-0.939347 0.0483409 0
-0.987688 -7.07643e-11 0