# vtk DataFile Version 3.0
#This file was generated by the deal.II library on 2026/5/26 at 18:57:17
ASCII
DATASET UNSTRUCTURED_GRID

POINTS 4096 double
0 0 0
0.03125 0 0
0 0.03125 0
0.03125 0.03125 0
0 0.03125 0
0.03125 0.03125 0
0 0.0625 0
0.03125 0.0625 0
0 0.0625 0
0.03125 0.0625 0
0 0.09375 0
0.03125 0.09375 0
0 0.09375 0
0.03125 0.09375 0
0 0.125 0
0.03125 0.125 0
0 0.125 0
0.03125 0.125 0
0 0.15625 0
0.03125 0.15625 0
0 0.15625 0
0.03125 0.15625 0
0 0.1875 0
0.03125 0.1875 0
0 0.1875 0
0.03125 0.1875 0
0 0.21875 0
0.03125 0.21875 0
0 0.21875 0
0.03125 0.21875 0
0 0.25 0
0.03125 0.25 0
0 0.25 0
0.03125 0.25 0
0 0.28125 0
0.03125 0.28125 0
0 0.28125 0
0.03125 0.28125 0
0 0.3125 0
0.03125 0.3125 0
0 0.3125 0
0.03125 0.3125 0
0 0.34375 0
0.03125 0.34375 0
0 0.34375 0
0.03125 0.34375 0
0 0.375 0
0.03125 0.375 0
0 0.375 0
0.03125 0.375 0
0 0.40625 0
0.03125 0.40625 0
0 0.40625 0
0.03125 0.40625 0
0 0.4375 0
0.03125 0.4375 0
0 0.4375 0
0.03125 0.4375 0
0 0.46875 0
0.03125 0.46875 0
0 0.46875 0
0.03125 0.46875 0
0 0.5 0
0.03125 0.5 0
0 0.5 0
0.03125 0.5 0
0 0.53125 0
0.03125 0.53125 0
0 0.53125 0
0.03125 0.53125 0
0 0.5625 0
0.03125 0.5625 0
0 0.5625 0
0.03125 0.5625 0
0 0.59375 0
0.03125 0.59375 0
0 0.59375 0
0.03125 0.59375 0
0 0.625 0
0.03125 0.625 0
0 0.625 0
0.03125 0.625 0
0 0.65625 0
0.03125 0.65625 0
0 0.65625 0
0.03125 0.65625 0
0 0.6875 0
0.03125 0.6875 0
0 0.6875 0
0.03125 0.6875 0
0 0.71875 0
0.03125 0.71875 0
0 0.71875 0
0.03125 0.71875 0
0 0.75 0
0.03125 0.75 0
0 0.75 0
0.03125 0.75 0
0 0.78125 0
0.03125 0.78125 0
0 0.78125 0
0.03125 0.78125 0
0 0.8125 0
0.03125 0.8125 0
0 0.8125 0
0.03125 0.8125 0
0 0.84375 0
0.03125 0.84375 0
0 0.84375 0
0.03125 0.84375 0
0 0.875 0
0.03125 0.875 0
0 0.875 0
0.03125 0.875 0
0 0.90625 0
0.03125 0.90625 0
0 0.90625 0
0.03125 0.90625 0
0 0.9375 0
0.03125 0.9375 0
0 0.9375 0
0.03125 0.9375 0
0 0.96875 0
0.03125 0.96875 0
0 0.96875 0
0.03125 0.96875 0
0 1 0
0.03125 1 0
0.03125 0 0
0.0625 0 0
0.03125 0.03125 0
0.0625 0.03125 0
0.03125 0.03125 0
0.0625 0.03125 0
0.03125 0.0625 0
0.0625 0.0625 0
0.03125 0.0625 0
0.0625 0.0625 0
0.03125 0.09375 0
0.0625 0.09375 0
0.03125 0.09375 0
0.0625 0.09375 0
0.03125 0.125 0
0.0625 0.125 0
0.03125 0.125 0
0.0625 0.125 0
0.03125 0.15625 0
0.0625 0.15625 0
0.03125 0.15625 0
0.0625 0.15625 0
0.03125 0.1875 0
0.0625 0.1875 0
0.03125 0.1875 0
0.0625 0.1875 0
0.03125 0.21875 0
0.0625 0.21875 0
0.03125 0.21875 0
0.0625 0.21875 0
0.03125 0.25 0
0.0625 0.25 0
0.03125 0.25 0
0.0625 0.25 0
0.03125 0.28125 0
0.0625 0.28125 0
0.03125 0.28125 0
0.0625 0.28125 0
0.03125 0.3125 0
0.0625 0.3125 0
0.03125 0.3125 0
0.0625 0.3125 0
0.03125 0.34375 0
0.0625 0.34375 0
0.03125 0.34375 0
0.0625 0.34375 0
0.03125 0.375 0
0.0625 0.375 0
0.03125 0.375 0
0.0625 0.375 0
0.03125 0.40625 0
0.0625 0.40625 0
0.03125 0.40625 0
0.0625 0.40625 0
0.03125 0.4375 0
0.0625 0.4375 0
0.03125 0.4375 0
0.0625 0.4375 0
0.03125 0.46875 0
0.0625 0.46875 0
0.03125 0.46875 0
0.0625 0.46875 0
0.03125 0.5 0
0.0625 0.5 0
0.03125 0.5 0
0.0625 0.5 0
0.03125 0.53125 0
0.0625 0.53125 0
0.03125 0.53125 0
0.0625 0.53125 0
0.03125 0.5625 0
0.0625 0.5625 0
0.03125 0.5625 0
0.0625 0.5625 0
0.03125 0.59375 0
0.0625 0.59375 0
0.03125 0.59375 0
0.0625 0.59375 0
0.03125 0.625 0
0.0625 0.625 0
0.03125 0.625 0
0.0625 0.625 0
0.03125 0.65625 0
0.0625 0.65625 0
0.03125 0.65625 0
0.0625 0.65625 0
0.03125 0.6875 0
0.0625 0.6875 0
0.03125 0.6875 0
0.0625 0.6875 0
0.03125 0.71875 0
0.0625 0.71875 0
0.03125 0.71875 0
0.0625 0.71875 0
0.03125 0.75 0
0.0625 0.75 0
0.03125 0.75 0
0.0625 0.75 0
0.03125 0.78125 0
0.0625 0.78125 0
0.03125 0.78125 0
0.0625 0.78125 0
0.03125 0.8125 0
0.0625 0.8125 0
0.03125 0.8125 0
0.0625 0.8125 0
0.03125 0.84375 0
0.0625 0.84375 0
0.03125 0.84375 0
0.0625 0.84375 0
0.03125 0.875 0
0.0625 0.875 0
0.03125 0.875 0
0.0625 0.875 0
0.03125 0.90625 0
0.0625 0.90625 0
0.03125 0.90625 0
0.0625 0.90625 0
0.03125 0.9375 0
0.0625 0.9375 0
0.03125 0.9375 0
0.0625 0.9375 0
0.03125 0.96875 0
0.0625 0.96875 0
0.03125 0.96875 0
0.0625 0.96875 0
0.03125 1 0
0.0625 1 0
0.0625 0 0
0.09375 0 0
0.0625 0.03125 0
0.09375 0.03125 0
0.0625 0.03125 0
0.09375 0.03125 0
0.0625 0.0625 0
0.09375 0.0625 0
0.0625 0.0625 0
0.09375 0.0625 0
0.0625 0.09375 0
0.09375 0.09375 0
0.0625 0.09375 0
0.09375 0.09375 0
0.0625 0.125 0
0.09375 0.125 0
0.0625 0.125 0
0.09375 0.125 0
0.0625 0.15625 0
0.09375 0.15625 0
0.0625 0.15625 0
0.09375 0.15625 0
0.0625 0.1875 0
0.09375 0.1875 0
0.0625 0.1875 0
0.09375 0.1875 0
0.0625 0.21875 0
0.09375 0.21875 0
0.0625 0.21875 0
0.09375 0.21875 0
0.0625 0.25 0
0.09375 0.25 0
0.0625 0.25 0
0.09375 0.25 0
0.0625 0.28125 0
0.09375 0.28125 0
0.0625 0.28125 0
0.09375 0.28125 0
0.0625 0.3125 0
0.09375 0.3125 0
0.0625 0.3125 0
0.09375 0.3125 0
0.0625 0.34375 0
0.09375 0.34375 0
0.0625 0.34375 0
0.09375 0.34375 0
0.0625 0.375 0
0.09375 0.375 0
0.0625 0.375 0
0.09375 0.375 0
0.0625 0.40625 0
0.09375 0.40625 0
0.0625 0.40625 0
0.09375 0.40625 0
0.0625 0.4375 0
0.09375 0.4375 0
0.0625 0.4375 0
0.09375 0.4375 0
0.0625 0.46875 0
0.09375 0.46875 0
0.0625 0.46875 0
0.09375 0.46875 0
0.0625 0.5 0
0.09375 0.5 0
0.0625 0.5 0
0.09375 0.5 0
0.0625 0.53125 0
0.09375 0.53125 0
0.0625 0.53125 0
0.09375 0.53125 0
0.0625 0.5625 0
0.09375 0.5625 0
0.0625 0.5625 0
0.09375 0.5625 0
0.0625 0.59375 0
0.09375 0.59375 0
0.0625 0.59375 0
0.09375 0.59375 0
0.0625 0.625 0
0.09375 0.625 0
0.0625 0.625 0
0.09375 0.625 0
0.0625 0.65625 0
0.09375 0.65625 0
0.0625 0.65625 0
0.09375 0.65625 0
0.0625 0.6875 0
0.09375 0.6875 0
0.0625 0.6875 0
0.09375 0.6875 0
0.0625 0.71875 0
0.09375 0.71875 0
0.0625 0.71875 0
0.09375 0.71875 0
0.0625 0.75 0
0.09375 0.75 0
0.0625 0.75 0
0.09375 0.75 0
0.0625 0.78125 0
0.09375 0.78125 0
0.0625 0.78125 0
0.09375 0.78125 0
0.0625 0.8125 0
0.09375 0.8125 0
0.0625 0.8125 0
0.09375 0.8125 0
0.0625 0.84375 0
0.09375 0.84375 0
0.0625 0.84375 0
0.09375 0.84375 0
0.0625 0.875 0
0.09375 0.875 0
0.0625 0.875 0
0.09375 0.875 0
0.0625 0.90625 0
0.09375 0.90625 0
0.0625 0.90625 0
0.09375 0.90625 0
0.0625 0.9375 0
0.09375 0.9375 0
0.0625 0.9375 0
0.09375 0.9375 0
0.0625 0.96875 0
0.09375 0.96875 0
0.0625 0.96875 0
0.09375 0.96875 0
0.0625 1 0
0.09375 1 0
0.09375 0 0
0.125 0 0
0.09375 0.03125 0
0.125 0.03125 0
0.09375 0.03125 0
0.125 0.03125 0
0.09375 0.0625 0
0.125 0.0625 0
0.09375 0.0625 0
0.125 0.0625 0
0.09375 0.09375 0
0.125 0.09375 0
0.09375 0.09375 0
0.125 0.09375 0
0.09375 0.125 0
0.125 0.125 0
0.09375 0.125 0
0.125 0.125 0
0.09375 0.15625 0
0.125 0.15625 0
0.09375 0.15625 0
0.125 0.15625 0
0.09375 0.1875 0
0.125 0.1875 0
0.09375 0.1875 0
0.125 0.1875 0
0.09375 0.21875 0
0.125 0.21875 0
0.09375 0.21875 0
0.125 0.21875 0
0.09375 0.25 0
0.125 0.25 0
0.09375 0.25 0
0.125 0.25 0
0.09375 0.28125 0
0.125 0.28125 0
0.09375 0.28125 0
0.125 0.28125 0
0.09375 0.3125 0
0.125 0.3125 0
0.09375 0.3125 0
0.125 0.3125 0
0.09375 0.34375 0
0.125 0.34375 0
0.09375 0.34375 0
0.125 0.34375 0
0.09375 0.375 0
0.125 0.375 0
0.09375 0.375 0
0.125 0.375 0
0.09375 0.40625 0
0.125 0.40625 0
0.09375 0.40625 0
0.125 0.40625 0
0.09375 0.4375 0
0.125 0.4375 0
0.09375 0.4375 0
0.125 0.4375 0
0.09375 0.46875 0
0.125 0.46875 0
0.09375 0.46875 0
0.125 0.46875 0
0.09375 0.5 0
0.125 0.5 0
0.09375 0.5 0
0.125 0.5 0
0.09375 0.53125 0
0.125 0.53125 0
0.09375 0.53125 0
0.125 0.53125 0
0.09375 0.5625 0
0.125 0.5625 0
0.09375 0.5625 0
0.125 0.5625 0
0.09375 0.59375 0
0.125 0.59375 0
0.09375 0.59375 0
0.125 0.59375 0
0.09375 0.625 0
0.125 0.625 0
0.09375 0.625 0
0.125 0.625 0
0.09375 0.65625 0
0.125 0.65625 0
0.09375 0.65625 0
0.125 0.65625 0
0.09375 0.6875 0
0.125 0.6875 0
0.09375 0.6875 0
0.125 0.6875 0
0.09375 0.71875 0
0.125 0.71875 0
0.09375 0.71875 0
0.125 0.71875 0
0.09375 0.75 0
0.125 0.75 0
0.09375 0.75 0
0.125 0.75 0
0.09375 0.78125 0
0.125 0.78125 0
0.09375 0.78125 0
0.125 0.78125 0
0.09375 0.8125 0
0.125 0.8125 0
0.09375 0.8125 0
0.125 0.8125 0
0.09375 0.84375 0
0.125 0.84375 0
0.09375 0.84375 0
0.125 0.84375 0
0.09375 0.875 0
0.125 0.875 0
0.09375 0.875 0
0.125 0.875 0
0.09375 0.90625 0
0.125 0.90625 0
0.09375 0.90625 0
0.125 0.90625 0
0.09375 0.9375 0
0.125 0.9375 0
0.09375 0.9375 0
0.125 0.9375 0
0.09375 0.96875 0
0.125 0.96875 0
0.09375 0.96875 0
0.125 0.96875 0
0.09375 1 0
0.125 1 0
0.125 0 0
0.15625 0 0
0.125 0.03125 0
0.15625 0.03125 0
0.125 0.03125 0
0.15625 0.03125 0
0.125 0.0625 0
0.15625 0.0625 0
0.125 0.0625 0
0.15625 0.0625 0
0.125 0.09375 0
0.15625 0.09375 0
0.125 0.09375 0
0.15625 0.09375 0
0.125 0.125 0
0.15625 0.125 0
0.125 0.125 0
0.15625 0.125 0
0.125 0.15625 0
0.15625 0.15625 0
0.125 0.15625 0
0.15625 0.15625 0
0.125 0.1875 0
0.15625 0.1875 0
0.125 0.1875 0
0.15625 0.1875 0
0.125 0.21875 0
0.15625 0.21875 0
0.125 0.21875 0
0.15625 0.21875 0
0.125 0.25 0
0.15625 0.25 0
0.125 0.25 0
0.15625 0.25 0
0.125 0.28125 0
0.15625 0.28125 0
0.125 0.28125 0
0.15625 0.28125 0
0.125 0.3125 0
0.15625 0.3125 0
0.125 0.3125 0
0.15625 0.3125 0
0.125 0.34375 0
0.15625 0.34375 0
0.125 0.34375 0
0.15625 0.34375 0
0.125 0.375 0
0.15625 0.375 0
0.125 0.375 0
0.15625 0.375 0
0.125 0.40625 0
0.15625 0.40625 0
0.125 0.40625 0
0.15625 0.40625 0
0.125 0.4375 0
0.15625 0.4375 0
0.125 0.4375 0
0.15625 0.4375 0
0.125 0.46875 0
0.15625 0.46875 0
0.125 0.46875 0
0.15625 0.46875 0
0.125 0.5 0
0.15625 0.5 0
0.125 0.5 0
0.15625 0.5 0
0.125 0.53125 0
0.15625 0.53125 0
0.125 0.53125 0
0.15625 0.53125 0
0.125 0.5625 0
0.15625 0.5625 0
0.125 0.5625 0
0.15625 0.5625 0
0.125 0.59375 0
0.15625 0.59375 0
0.125 0.59375 0
0.15625 0.59375 0
0.125 0.625 0
0.15625 0.625 0
0.125 0.625 0
0.15625 0.625 0
0.125 0.65625 0
0.15625 0.65625 0
0.125 0.65625 0
0.15625 0.65625 0
0.125 0.6875 0
0.15625 0.6875 0
0.125 0.6875 0
0.15625 0.6875 0
0.125 0.71875 0
0.15625 0.71875 0
0.125 0.71875 0
0.15625 0.71875 0
0.125 0.75 0
0.15625 0.75 0
0.125 0.75 0
0.15625 0.75 0
0.125 0.78125 0
0.15625 0.78125 0
0.125 0.78125 0
0.15625 0.78125 0
0.125 0.8125 0
0.15625 0.8125 0
0.125 0.8125 0
0.15625 0.8125 0
0.125 0.84375 0
0.15625 0.84375 0
0.125 0.84375 0
0.15625 0.84375 0
0.125 0.875 0
[...]
POINT_DATA 4096
VECTORS velocity double
0 0 0
0.0980171 0 0
0 -0.0980171 0
0.0975365 -0.0975531 0
0 -0.0980171 0
0.0975365 -0.0975531 0
0 -0.19509 0
0.0961502 -0.194154 0
0 -0.19509 0
0.0961502 -0.194154 0
0 -0.290285 0
0.0938003 -0.288882 0
0 -0.290285 0
0.0938003 -0.288882 0
0 -0.382683 0
0.0905597 -0.380839 0
0 -0.382683 0
0.0905597 -0.380839 0
0 -0.471397 0
0.0864455 -0.469126 0
0 -0.471397 0
0.0864455 -0.469126 0
0 -0.55557 0
0.0815005 -0.552895 0
0 -0.55557 0
0.0815005 -0.552895 0
0 -0.634393 0
0.0757708 -0.631339 0
0 -0.634393 0
0.0757708 -0.631339 0
0 -0.707107 0
0.0693116 -0.703703 0
0 -0.707107 0
0.0693116 -0.703703 0
0 -0.77301 0
0.062185 -0.76929 0
0 -0.77301 0
0.062185 -0.76929 0
0 -0.83147 0
0.0544595 -0.827468 0
0 -0.83147 0
0.0544595 -0.827468 0
0 -0.881921 0
0.0462096 -0.877676 0
0 -0.881921 0
0.0462096 -0.877676 0
0 -0.92388 0
0.0375145 -0.919432 0
0 -0.92388 0
0.0375145 -0.919432 0
0 -0.95694 0
0.0284581 -0.952334 0
0 -0.95694 0
0.0284581 -0.952334 0
0 -0.980785 0
0.0191276 -0.976064 0
0 -0.980785 0
0.0191276 -0.976064 0
0 -0.995185 0
0.00961272 -0.990394 0
0 -0.995185 0
0.00961272 -0.990394 0
0 -1 0
5.21996e-06 -0.995186 0
0 -1 0
5.21996e-06 -0.995186 0
0 -0.995185 0
-0.00960241 -0.990393 0
0 -0.995185 0
-0.00960241 -0.990393 0
0 -0.980785 0
-0.0191176 -0.976063 0
0 -0.980785 0
-0.0191176 -0.976063 0
0 -0.95694 0
-0.0284488 -0.952333 0
0 -0.95694 0
-0.0284488 -0.952333 0
0 -0.92388 0
-0.0375061 -0.919431 0
0 -0.92388 0
-0.0375061 -0.919431 0
0 -0.881921 0
-0.0462023 -0.877674 0
0 -0.881921 0
-0.0462023 -0.877674 0
0 -0.83147 0
-0.0544535 -0.827466 0
0 -0.83147 0
-0.0544535 -0.827466 0
0 -0.77301 0
-0.0621804 -0.769288 0
0 -0.77301 0
-0.0621804 -0.769288 0
0 -0.707107 0
-0.0693083 -0.703701 0
0 -0.707107 0
-0.0693083 -0.703701 0
0 -0.634393 0
-0.0757688 -0.631338 0
0 -0.634393 0
-0.0757688 -0.631338 0
0 -0.55557 0
-0.0814992 -0.552895 0
0 -0.55557 0
-0.0814992 -0.552895 0
0 -0.471397 0
-0.0864445 -0.469128 0
0 -0.471397 0
-0.0864445 -0.469128 0
0 -0.382683 0
-0.0905554 -0.380842 0
0 -0.382683 0
-0.0905554 -0.380842 0
0 -0.290285 0
-0.0937959 -0.288892 0
0 -0.290285 0
-0.0937959 -0.288892 0
0 -0.19509 0
-0.0961198 -0.194148 0
0 -0.19509 0
-0.0961198 -0.194148 0
0 -0.0980171 0
-0.0975538 -0.0975371 0
0 -0.0980171 0
-0.0975538 -0.0975371 0
0 -1.22465e-16 0
-0.0980171 -1.21875e-16 0
0.0980171 0 0
0.19509 0 0
0.0975365 -0.0975531 0
0.194147 -0.0961189 0
0.0975365 -0.0975531 0
0.194147 -0.0961189 0
0.0961502 -0.194154 0
0.19134 -0.191342 0
0.0961502 -0.194154 0
0.19134 -0.191342 0
0.0938003 -0.288882 0
0.186692 -0.284706 0
0.0938003 -0.288882 0
0.186692 -0.284706 0
0.0905597 -0.380839 0
0.180241 -0.375329 0
0.0905597 -0.380839 0
0.180241 -0.375329 0
0.0864455 -0.469126 0
0.172055 -0.462339 0
0.0864455 -0.469126 0
0.172055 -0.462339 0
0.0815005 -0.552895 0
0.162213 -0.544896 0
0.0815005 -0.552895 0
0.162213 -0.544896 0
0.0757708 -0.631339 0
0.150809 -0.622205 0
0.0757708 -0.631339 0
0.150809 -0.622205 0
0.0693116 -0.703703 0
0.137953 -0.693522 0
0.0693116 -0.703703 0
0.137953 -0.693522 0
0.062185 -0.76929 0
0.123769 -0.75816 0
0.062185 -0.76929 0
0.123769 -0.75816 0
0.0544595 -0.827468 0
0.108392 -0.815496 0
0.0544595 -0.827468 0
0.108392 -0.815496 0
0.0462096 -0.877676 0
0.0919717 -0.864978 0
0.0462096 -0.877676 0
0.0919717 -0.864978 0
0.0375145 -0.919432 0
0.0746655 -0.90613 0
0.0375145 -0.919432 0
0.0746655 -0.90613 0
0.0284581 -0.952334 0
0.05664 -0.938555 0
0.0284581 -0.952334 0
0.05664 -0.938555 0
0.0191276 -0.976064 0
0.038069 -0.961942 0
0.0191276 -0.976064 0
0.038069 -0.961942 0
0.00961272 -0.990394 0
0.0191312 -0.976065 0
0.00961272 -0.990394 0
0.0191312 -0.976065 0
5.21996e-06 -0.995186 0
9.03268e-06 -0.980787 0
5.21996e-06 -0.995186 0
9.03268e-06 -0.980787 0
-0.00960241 -0.990393 0
-0.0191134 -0.976064 0
-0.00960241 -0.990393 0
-0.0191134 -0.976064 0
-0.0191176 -0.976063 0
-0.0380518 -0.961941 0
-0.0191176 -0.976063 0
-0.0380518 -0.961941 0
-0.0284488 -0.952333 0
-0.0566239 -0.938554 0
-0.0284488 -0.952333 0
-0.0566239 -0.938554 0
-0.0375061 -0.919431 0
-0.0746509 -0.906128 0
-0.0375061 -0.919431 0
-0.0746509 -0.906128 0
-0.0462023 -0.877674 0
-0.091959 -0.864975 0
-0.0462023 -0.877674 0
-0.091959 -0.864975 0
-0.0544535 -0.827466 0
-0.108382 -0.815493 0
-0.0544535 -0.827466 0
-0.108382 -0.815493 0
-0.0621804 -0.769288 0
-0.12376 -0.758157 0
-0.0621804 -0.769288 0
-0.12376 -0.758157 0
-0.0693083 -0.703701 0
-0.137947 -0.69352 0
-0.0693083 -0.703701 0
-0.137947 -0.69352 0
-0.0757688 -0.631338 0
-0.150806 -0.622204 0
-0.0757688 -0.631338 0
-0.150806 -0.622204 0
-0.0814992 -0.552895 0
-0.162211 -0.544896 0
-0.0814992 -0.552895 0
-0.162211 -0.544896 0
-0.0864445 -0.469128 0
-0.172054 -0.46234 0
-0.0864445 -0.469128 0
-0.172054 -0.46234 0
-0.0905554 -0.380842 0
-0.18024 -0.375332 0
-0.0905554 -0.380842 0
-0.18024 -0.375332 0
-0.0937959 -0.288892 0
-0.186688 -0.284708 0
-0.0937959 -0.288892 0
-0.186688 -0.284708 0
-0.0961198 -0.194148 0
-0.191343 -0.191341 0
-0.0961198 -0.194148 0
-0.191343 -0.191341 0
-0.0975538 -0.0975371 0
-0.194155 -0.0961511 0
-0.0975538 -0.0975371 0
-0.194155 -0.0961511 0
-0.0980171 -1.21875e-16 0
-0.19509 -1.20112e-16 0
0.19509 0 0
0.290285 0 0
0.194147 -0.0961189 0
0.288891 -0.0937949 0
0.194147 -0.0961189 0
0.288891 -0.0937949 0
0.19134 -0.191342 0
0.284707 -0.186686 0
0.19134 -0.191342 0
0.284707 -0.186686 0
0.186692 -0.284706 0
0.277785 -0.277784 0
0.186692 -0.284706 0
0.277785 -0.277784 0
0.180241 -0.375329 0
0.268189 -0.366204 0
0.180241 -0.375329 0
0.268189 -0.366204 0
0.172055 -0.462339 0
0.25601 -0.451098 0
0.172055 -0.462339 0
0.25601 -0.451098 0
0.162213 -0.544896 0
0.241365 -0.531648 0
0.162213 -0.544896 0
0.241365 -0.531648 0
0.150809 -0.622205 0
0.224396 -0.607078 0
0.150809 -0.622205 0
0.224396 -0.607078 0
0.137953 -0.693522 0
0.205267 -0.676661 0
0.137953 -0.693522 0
0.205267 -0.676661 0
0.123769 -0.75816 0
0.184161 -0.739727 0
0.123769 -0.75816 0
0.184161 -0.739727 0
0.108392 -0.815496 0
0.161281 -0.795669 0
0.108392 -0.815496 0
0.161281 -0.795669 0
0.0919717 -0.864978 0
0.136848 -0.843949 0
0.0919717 -0.864978 0
0.136848 -0.843949 0
0.0746655 -0.90613 0
0.111097 -0.8841 0
0.0746655 -0.90613 0
0.111097 -0.8841 0
0.05664 -0.938555 0
0.084276 -0.915738 0
0.05664 -0.938555 0
0.084276 -0.915738 0
0.038069 -0.961942 0
0.0566431 -0.938556 0
0.038069 -0.961942 0
0.0566431 -0.938556 0
0.0191312 -0.976065 0
0.0284646 -0.952335 0
0.0191312 -0.976065 0
0.0284646 -0.952335 0
9.03268e-06 -0.980787 0
1.17771e-05 -0.956942 0
9.03268e-06 -0.980787 0
1.17771e-05 -0.956942 0
-0.0191134 -0.976064 0
-0.0284413 -0.952334 0
-0.0191134 -0.976064 0
-0.0284413 -0.952334 0
-0.0380518 -0.961941 0
-0.0566207 -0.938555 0
-0.0380518 -0.961941 0
-0.0566207 -0.938555 0
-0.0566239 -0.938554 0
-0.0842549 -0.915736 0
-0.0566239 -0.938554 0
-0.0842549 -0.915736 0
-0.0746509 -0.906128 0
-0.111078 -0.884098 0
-0.0746509 -0.906128 0
-0.111078 -0.884098 0
-0.091959 -0.864975 0
-0.136831 -0.843947 0
-0.091959 -0.864975 0
-0.136831 -0.843947 0
-0.108382 -0.815493 0
-0.161267 -0.795667 0
-0.108382 -0.815493 0
-0.161267 -0.795667 0
-0.12376 -0.758157 0
-0.184149 -0.739725 0
-0.12376 -0.758157 0
-0.184149 -0.739725 0
-0.137947 -0.69352 0
-0.205259 -0.676659 0
-0.137947 -0.69352 0
-0.205259 -0.676659 0
-0.150806 -0.622204 0
-0.224391 -0.607077 0
-0.150806 -0.622204 0
-0.224391 -0.607077 0
-0.162211 -0.544896 0
-0.241362 -0.531648 0
-0.162211 -0.544896 0
-0.241362 -0.531648 0
-0.172054 -0.46234 0
-0.256008 -0.4511 0
-0.172054 -0.46234 0
-0.256008 -0.4511 0
-0.18024 -0.375332 0
-0.268188 -0.366207 0
-0.18024 -0.375332 0
-0.268188 -0.366207 0
-0.186688 -0.284708 0
-0.277785 -0.277787 0
-0.186688 -0.284708 0
-0.277785 -0.277787 0
-0.191343 -0.191341 0
-0.284708 -0.186694 0
-0.191343 -0.191341 0
-0.284708 -0.186694 0
-0.194155 -0.0961511 0
-0.288883 -0.0938014 0
-0.194155 -0.0961511 0
-0.288883 -0.0938014 0
-0.19509 -1.20112e-16 0
-0.290285 -1.17191e-16 0
0.290285 0 0
0.382683 0 0
0.288891 -0.0937949 0
0.380842 -0.0905543 0
0.288891 -0.0937949 0
0.380842 -0.0905543 0
0.284707 -0.186686 0
0.375331 -0.180238 0
0.284707 -0.186686 0
0.375331 -0.180238 0
0.277785 -0.277784 0
0.366205 -0.268186 0
0.277785 -0.277784 0
0.366205 -0.268186 0
0.268189 -0.366204 0
0.353554 -0.353552 0
0.268189 -0.366204 0
0.353554 -0.353552 0
0.25601 -0.451098 0
0.337498 -0.435513 0
0.25601 -0.451098 0
0.337498 -0.435513 0
0.241365 -0.531648 0
0.318193 -0.51328 0
0.241365 -0.531648 0
0.318193 -0.51328 0
0.224396 -0.607078 0
0.295823 -0.586103 0
0.224396 -0.607078 0
0.295823 -0.586103 0
0.205267 -0.676661 0
0.270604 -0.653283 0
0.205267 -0.676661 0
0.270604 -0.653283 0
0.184161 -0.739727 0
0.242779 -0.71417 0
0.184161 -0.739727 0
0.242779 -0.71417 0
0.161281 -0.795669 0
0.212617 -0.76818 0
0.161281 -0.795669 0
0.212617 -0.76818 0
0.136848 -0.843949 0
0.180406 -0.814792 0
0.136848 -0.843949 0
0.180406 -0.814792 0
0.111097 -0.8841 0
0.146458 -0.853556 0
0.111097 -0.8841 0
0.146458 -0.853556 0
0.084276 -0.915738 0
0.1111 -0.8841 0
0.084276 -0.915738 0
0.1111 -0.8841 0
0.0566431 -0.938556 0
0.0746711 -0.90613 0
0.0566431 -0.938556 0
0.0746711 -0.90613 0
0.0284646 -0.952335 0
0.0375232 -0.919433 0
0.0284646 -0.952335 0
0.0375232 -0.919433 0
1.17771e-05 -0.956942 0
1.37016e-05 -0.923882 0
1.17771e-05 -0.956942 0
1.37016e-05 -0.923882 0
-0.0284413 -0.952334 0
-0.0374961 -0.919433 0
-0.0284413 -0.952334 0
-0.0374961 -0.919433 0
-0.0566207 -0.938555 0
-0.0746449 -0.906129 0
-0.0566207 -0.938555 0
-0.0746449 -0.906129 0
-0.0842549 -0.915736 0
-0.111075 -0.884099 0
-0.0842549 -0.915736 0
-0.111075 -0.884099 0
-0.111078 -0.884098 0
-0.146436 -0.853555 0
-0.111078 -0.884098 0
-0.146436 -0.853555 0
-0.136831 -0.843947 0
-0.180386 -0.81479 0
-0.136831 -0.843947 0
-0.180386 -0.81479 0
-0.161267 -0.795667 0
-0.212599 -0.768179 0
-0.161267 -0.795667 0
-0.212599 -0.768179 0
-0.184149 -0.739725 0
-0.242765 -0.71417 0
-0.184149 -0.739725 0
-0.242765 -0.71417 0
-0.205259 -0.676659 0
-0.270593 -0.653283 0
-0.205259 -0.676659 0
-0.270593 -0.653283 0
-0.224391 -0.607077 0
-0.295815 -0.586104 0
-0.224391 -0.607077 0
-0.295815 -0.586104 0
-0.241362 -0.531648 0
-0.318188 -0.513282 0
-0.241362 -0.531648 0
-0.318188 -0.513282 0
-0.256008 -0.4511 0
-0.337496 -0.435516 0
-0.256008 -0.4511 0
-0.337496 -0.435516 0
-0.268188 -0.366207 0
-0.353553 -0.353555 0
-0.268188 -0.366207 0
-0.353553 -0.353555 0
-0.277785 -0.277787 0
-0.366205 -0.268191 0
-0.277785 -0.277787 0
-0.366205 -0.268191 0
-0.284708 -0.186694 0
-0.37533 -0.180243 0
-0.284708 -0.186694 0
-0.37533 -0.180243 0
-0.288883 -0.0938014 0
-0.38084 -0.0905608 0
-0.288883 -0.0938014 0
-0.38084 -0.0905608 0
-0.290285 -1.17191e-16 0
-0.382683 -1.13143e-16 0
0.382683 0 0
0.471397 0 0
0.380842 -0.0905543 0
0.469128 -0.0864435 0
0.380842 -0.0905543 0
0.469128 -0.0864435 0
0.375331 -0.180238 0
0.462339 -0.172053 0
0.375331 -0.180238 0
0.462339 -0.172053 0
0.366205 -0.268186 0
0.451099 -0.256006 0
0.366205 -0.268186 0
0.451099 -0.256006 0
0.353554 -0.353552 0
0.435515 -0.337495 0
0.353554 -0.353552 0
0.435515 -0.337495 0
0.337498 -0.435513 0
0.415737 -0.415733 0
0.337498 -0.435513 0
0.415737 -0.415733 0
0.318193 -0.51328 0
0.391956 -0.489968 0
0.318193 -0.51328 0
0.391956 -0.489968 0
0.295823 -0.586103 0
0.3644 -0.559484 0
0.295823 -0.586103 0
0.3644 -0.559484 0
0.270604 -0.653283 0
0.333335 -0.623613 0
0.270604 -0.653283 0
0.333335 -0.623613 0
0.242779 -0.71417 0
0.29906 -0.681735 0
0.242779 -0.71417 0
0.29906 -0.681735 0
0.212617 -0.76818 0
0.261904 -0.733292 0
0.212617 -0.76818 0
0.261904 -0.733292 0
0.180406 -0.814792 0
0.222227 -0.777787 0
0.180406 -0.814792 0
0.222227 -0.777787 0
0.146458 -0.853556 0
0.180409 -0.814791 0
0.146458 -0.853556 0
0.180409 -0.814791 0
0.1111 -0.8841 0
0.136853 -0.843948 0
0.1111 -0.8841 0
0.136853 -0.843948 0
0.0746711 -0.90613 0
0.0919795 -0.864978 0
0.0746711 -0.90613 0
0.0919795 -0.864978 0
0.0375232 -0.919433 0
0.0462199 -0.877677 0
0.0375232 -0.919433 0
0.0462199 -0.877677 0
1.37016e-05 -0.923882 0
1.49947e-05 -0.881924 0
1.37016e-05 -0.923882 0
1.49947e-05 -0.881924 0
-0.0374961 -0.919433 0
-0.0461902 -0.877677 0
-0.0374961 -0.919433 0
-0.0461902 -0.877677 0
-0.0746449 -0.906129 0
-0.0919508 -0.864978 0
-0.0746449 -0.906129 0
-0.0919508 -0.864978 0
-0.111075 -0.884099 0
-0.136826 -0.843948 0
-0.111075 -0.884099 0
-0.136826 -0.843948 0
-0.146436 -0.853555 0
-0.180384 -0.814791 0
-0.146436 -0.853555 0
-0.180384 -0.814791 0
-0.180386 -0.81479 0
-0.222204 -0.777787 0
-0.180386 -0.81479 0
-0.222204 -0.777787 0
-0.212599 -0.768179 0
-0.261885 -0.733293 0
-0.212599 -0.768179 0
-0.261885 -0.733293 0
-0.242765 -0.71417 0
-0.299043 -0.681737 0
-0.242765 -0.71417 0
-0.299043 -0.681737 0
-0.270593 -0.653283 0
-0.333322 -0.623615 0
-0.270593 -0.653283 0
-0.333322 -0.623615 0
-0.295815 -0.586104 0
-0.36439 -0.559487 0
-0.295815 -0.586104 0
-0.36439 -0.559487 0
-0.318188 -0.513282 0
-0.391949 -0.489972 0
-0.318188 -0.513282 0
-0.391949 -0.489972 0
-0.337496 -0.435516 0
-0.415733 -0.415737 0
-0.337496 -0.435516 0
-0.415733 -0.415737 0
-0.353553 -0.353555 0
-0.435513 -0.337499 0
-0.353553 -0.353555 0
-0.435513 -0.337499 0
-0.366205 -0.268191 0
-0.451099 -0.256011 0
-0.366205 -0.268191 0
-0.451099 -0.256011 0
-0.37533 -0.180243 0
-0.462339 -0.172057 0
-0.37533 -0.180243 0
-0.462339 -0.172057 0
-0.38084 -0.0905608 0
-0.469126 -0.0864465 0
-0.38084 -0.0905608 0
-0.469126 -0.0864465 0
-0.382683 -1.13143e-16 0
-0.471397 -1.08004e-16 0
0.471397 0 0
0.55557 0 0
0.469128 -0.0864435 0
0.552895 -0.0814984 0
0.469128 -0.0864435 0
0.552895 -0.0814984 0
0.462339 -0.172053 0
0.544896 -0.16221 0
0.462339 -0.172053 0
0.544896 -0.16221 0
0.451099 -0.256006 0
0.531649 -0.241361 0
0.451099 -0.256006 0
0.531649 -0.241361 0
0.435515 -0.337495 0
0.513282 -0.318187 0
0.435515 -0.337495 0
0.513282 -0.318187 0
0.415737 -0.415733 0
0.489973 -0.39195 0
0.415737 -0.415733 0
0.489973 -0.39195 0
0.391956 -0.489968 0
0.461945 -0.461938 0
0.391956 -0.489968 0
0.461945 -0.461938 0
0.3644 -0.559484 0
0.429468 -0.527477 0
0.3644 -0.559484 0
0.429468 -0.527477 0
0.333335 -0.623613 0
0.392856 -0.587937 0
0.333335 -0.623613 0
0.392856 -0.587937 0
0.29906 -0.681735 0
0.35246 -0.642735 0
0.29906 -0.681735 0
0.35246 -0.642735 0
0.261904 -0.733292 0
0.30867 -0.691342 0
0.261904 -0.733292 0
0.30867 -0.691342 0
0.222227 -0.777787 0
0.261907 -0.733292 0
0.222227 -0.777787 0
0.261907 -0.733292 0
0.180409 -0.814791 0
0.212621 -0.768179 0
0.180409 -0.814791 0
0.212621 -0.768179 0
0.136853 -0.843948 0
0.161288 -0.795669 0
0.136853 -0.843948 0
0.161288 -0.795669 0
0.0919795 -0.864978 0
0.108402 -0.815495 0
0.0919795 -0.864978 0
0.108402 -0.815495 0
0.0462199 -0.877677 0
0.0544712 -0.827468 0
0.0462199 -0.877677 0
0.0544712 -0.827468 0
1.49947e-05 -0.881924 0
1.57978e-05 -0.831472 0
1.49947e-05 -0.881924 0
1.57978e-05 -0.831472 0
-0.0461902 -0.877677 0
-0.0544399 -0.827469 0
-0.0461902 -0.877677 0
-0.0544399 -0.827469 0
-0.0919508 -0.864978 0
-0.108371 -0.815496 0
-0.0919508 -0.864978 0
-0.108371 -0.815496 0
-0.136826 -0.843948 0
-0.161259 -0.79567 0
-0.136826 -0.843948 0
-0.161259 -0.79567 0
-0.180384 -0.814791 0
-0.212595 -0.768181 0
-0.180384 -0.814791 0
-0.212595 -0.768181 0
-0.222204 -0.777787 0
-0.261882 -0.733294 0
-0.222204 -0.777787 0
-0.261882 -0.733294 0
-0.261885 -0.733293 0
-0.308648 -0.691345 0
-0.261885 -0.733293 0
-0.308648 -0.691345 0
-0.299043 -0.681737 0
-0.352442 -0.642738 0
-0.299043 -0.681737 0
-0.352442 -0.642738 0
-0.333322 -0.623615 0
-0.392841 -0.587941 0
-0.333322 -0.623615 0
-0.392841 -0.587941 0
-0.36439 -0.559487 0
-0.429457 -0.527482 0
-0.36439 -0.559487 0
-0.429457 -0.527482 0
-0.391949 -0.489972 0
-0.461936 -0.461943 0
-0.391949 -0.489972 0
-0.461936 -0.461943 0
-0.415733 -0.415737 0
-0.489967 -0.391956 0
-0.415733 -0.415737 0
-0.489967 -0.391956 0
-0.435513 -0.337499 0
-0.513279 -0.318193 0
-0.435513 -0.337499 0
-0.513279 -0.318193 0
-0.451099 -0.256011 0
-0.531647 -0.241366 0
-0.451099 -0.256011 0
-0.531647 -0.241366 0
-0.462339 -0.172057 0
-0.544895 -0.162214 0
-0.462339 -0.172057 0
-0.544895 -0.162214 0
-0.469126 -0.0864465 0
-0.552895 -0.0815013 0
-0.469126 -0.0864465 0
-0.552895 -0.0815013 0
-0.471397 -1.08004e-16 0
-0.55557 -1.01826e-16 0
0.55557 0 0
0.634393 0 0
0.552895 -0.0814984 0
0.631339 -0.0757683 0
0.552895 -0.0814984 0
0.631339 -0.0757683 0
0.544896 -0.16221 0
0.622205 -0.150805 0
0.544896 -0.16221 0
0.622205 -0.150805 0
0.531649 -0.241361 0
0.607079 -0.22439 0
0.531649 -0.241361 0
0.607079 -0.22439 0
0.513282 -0.318187 0
0.586106 -0.295815 0
0.513282 -0.318187 0
0.586106 -0.295815 0
0.489973 -0.39195 0
0.55949 -0.364391 0
0.489973 -0.39195 0
0.55949 -0.364391 0
0.461945 -0.461938 0
0.527485 -0.429458 0
0.461945 -0.461938 0
0.527485 -0.429458 0
0.429468 -0.527477 0
0.4904 -0.49039 0
0.429468 -0.527477 0
0.4904 -0.49039 0
0.392856 -0.587937 0
0.448593 -0.546599 0
0.392856 -0.587937 0
0.448593 -0.546599 0
0.35246 -0.642735 0
0.402466 -0.597544 0
0.35246 -0.642735 0
0.402466 -0.597544 0
0.30867 -0.691342 0
0.352462 -0.642734 0
0.30867 -0.691342 0
0.352462 -0.642734 0
0.261907 -0.733292 0
0.299064 -0.681735 0
0.261907 -0.733292 0
0.299064 -0.681735 0
0.212621 -0.768179 0
0.242786 -0.714169 0
0.212621 -0.768179 0
0.242786 -0.714169 0
0.161288 -0.795669 0
0.18417 -0.739726 0
0.161288 -0.795669 0
0.18417 -0.739726 0
0.108402 -0.815495 0
0.12378 -0.758159 0
0.108402 -0.815495 0
0.12378 -0.758159 0
0.0544712 -0.827468 0
0.0621976 -0.76929 0
0.0544712 -0.827468 0
0.0621976 -0.76929 0
1.57978e-05 -0.831472 0
1.62163e-05 -0.773013 0
1.57978e-05 -0.831472 0
1.62163e-05 -0.773013 0
-0.0544399 -0.827469 0
-0.0621655 -0.769291 0
-0.0544399 -0.827469 0
-0.0621655 -0.769291 0
-0.108371 -0.815496 0
-0.123749 -0.75816 0
-0.108371 -0.815496 0
-0.123749 -0.75816 0
-0.161259 -0.79567 0
-0.18414 -0.739728 0
-0.161259 -0.79567 0
-0.18414 -0.739728 0
-0.212595 -0.768181 0
-0.242758 -0.714172 0
-0.212595 -0.768181 0
-0.242758 -0.714172 0
-0.261882 -0.733294 0
-0.299039 -0.681738 0
-0.261882 -0.733294 0
-0.299039 -0.681738 0
-0.308648 -0.691345 0
-0.352439 -0.642739 0
-0.308648 -0.691345 0
-0.352439 -0.642739 0
-0.352442 -0.642738 0
-0.402446 -0.597549 0
-0.352442 -0.642738 0
-0.402446 -0.597549 0
-0.392841 -0.587941 0
-0.448576 -0.546605 0
-0.392841 -0.587941 0
-0.448576 -0.546605 0
-0.429457 -0.527482 0
-0.490387 -0.490397 0
-0.429457 -0.527482 0
-0.490387 -0.490397 0
-0.461936 -0.461943 0
-0.527475 -0.429466 0
-0.461936 -0.461943 0
-0.527475 -0.429466 0
-0.489967 -0.391956 0
-0.559482 -0.364399 0
-0.489967 -0.391956 0
-0.559482 -0.364399 0
-0.513279 -0.318193 0
-0.586101 -0.295823 0
-0.513279 -0.318193 0
-0.586101 -0.295823 0
-0.531647 -0.241366 0
-0.607076 -0.224397 0
-0.531647 -0.241366 0
-0.607076 -0.224397 0
-0.544895 -0.162214 0
-0.622204 -0.15081 0
-0.544895 -0.162214 0
-0.622204 -0.15081 0
-0.552895 -0.0815013 0
-0.631339 -0.0757713 0
-0.552895 -0.0815013 0
-0.631339 -0.0757713 0
-0.55557 -1.01826e-16 0
-0.634393 -9.46665e-17 0
0.634393 0 0
0.707107 0 0
0.631339 -0.0757683 0
0.703703 -0.0693082 0
0.631339 -0.0757683 0
0.703703 -0.0693082 0
0.622205 -0.150805 0
0.693522 -0.137947 0
0.622205 -0.150805 0
0.693522 -0.137947 0
0.607079 -0.22439 0
0.676662 -0.205259 0
0.607079 -0.22439 0
0.676662 -0.205259 0
0.586106 -0.295815 0
0.653286 -0.270594 0
0.586106 -0.295815 0
0.653286 -0.270594 0
0.55949 -0.364391 0
0.623618 -0.333323 0
0.55949 -0.364391 0
0.623618 -0.333323 0
0.527485 -0.429458 0
0.587945 -0.392843 0
0.527485 -0.429458 0
0.587945 -0.392843 0
0.4904 -0.49039 0
0.54661 -0.44858 0
0.4904 -0.49039 0
0.54661 -0.44858 0
0.448593 -0.546599 0
0.50001 -0.499997 0
0.448593 -0.546599 0
0.50001 -0.499997 0
0.402466 -0.597544 0
0.448595 -0.546599 0
0.402466 -0.597544 0
0.448595 -0.546599 0
0.352462 -0.642734 0
0.39286 -0.587936 0
0.352462 -0.642734 0
0.39286 -0.587936 0
0.299064 -0.681735 0
0.333342 -0.623612 0
0.299064 -0.681735 0
0.333342 -0.623612 0
0.242786 -0.714169 0
0.270613 -0.653282 0
0.242786 -0.714169 0
0.270613 -0.653282 0
0.18417 -0.739726 0
0.205278 -0.67666 0
0.18417 -0.739726 0
0.205278 -0.67666 0