# vtk DataFile Version 3.0
#This file was generated by the deal.II library on 2026/5/26 at 18:57:22
ASCII
DATASET UNSTRUCTURED_GRID

POINTS 4096 double
0 0 0
0.03125 0 0
0 0.03125 0
0.03125 0.03125 0
0 0.03125 0
0.03125 0.03125 0
0 0.0625 0
0.03125 0.0625 0
0 0.0625 0
0.03125 0.0625 0
0 0.09375 0
0.03125 0.09375 0
0 0.09375 0
0.03125 0.09375 0
0 0.125 0
0.03125 0.125 0
0 0.125 0
0.03125 0.125 0
0 0.15625 0
0.03125 0.15625 0
0 0.15625 0
0.03125 0.15625 0
0 0.1875 0
0.03125 0.1875 0
0 0.1875 0
0.03125 0.1875 0
0 0.21875 0
0.03125 0.21875 0
0 0.21875 0
0.03125 0.21875 0
0 0.25 0
0.03125 0.25 0
0 0.25 0
0.03125 0.25 0
0 0.28125 0
0.03125 0.28125 0
0 0.28125 0
0.03125 0.28125 0
0 0.3125 0
0.03125 0.3125 0
0 0.3125 0
0.03125 0.3125 0
0 0.34375 0
0.03125 0.34375 0
0 0.34375 0
0.03125 0.34375 0
0 0.375 0
0.03125 0.375 0
0 0.375 0
0.03125 0.375 0
0 0.40625 0
0.03125 0.40625 0
0 0.40625 0
0.03125 0.40625 0
0 0.4375 0
0.03125 0.4375 0
0 0.4375 0
0.03125 0.4375 0
0 0.46875 0
0.03125 0.46875 0
0 0.46875 0
0.03125 0.46875 0
0 0.5 0
0.03125 0.5 0
0 0.5 0
0.03125 0.5 0
0 0.53125 0
0.03125 0.53125 0
0 0.53125 0
0.03125 0.53125 0
0 0.5625 0
0.03125 0.5625 0
0 0.5625 0
0.03125 0.5625 0
0 0.59375 0
0.03125 0.59375 0
0 0.59375 0
0.03125 0.59375 0
0 0.625 0
0.03125 0.625 0
0 0.625 0
0.03125 0.625 0
0 0.65625 0
0.03125 0.65625 0
0 0.65625 0
0.03125 0.65625 0
0 0.6875 0
0.03125 0.6875 0
0 0.6875 0
0.03125 0.6875 0
0 0.71875 0
0.03125 0.71875 0
0 0.71875 0
0.03125 0.71875 0
0 0.75 0
0.03125 0.75 0
0 0.75 0
0.03125 0.75 0
0 0.78125 0
0.03125 0.78125 0
0 0.78125 0
0.03125 0.78125 0
0 0.8125 0
0.03125 0.8125 0
0 0.8125 0
0.03125 0.8125 0
0 0.84375 0
0.03125 0.84375 0
0 0.84375 0
0.03125 0.84375 0
0 0.875 0
0.03125 0.875 0
0 0.875 0
0.03125 0.875 0
0 0.90625 0
0.03125 0.90625 0
0 0.90625 0
0.03125 0.90625 0
0 0.9375 0
0.03125 0.9375 0
0 0.9375 0
0.03125 0.9375 0
0 0.96875 0
0.03125 0.96875 0
0 0.96875 0
0.03125 0.96875 0
0 1 0
0.03125 1 0
0.03125 0 0
0.0625 0 0
0.03125 0.03125 0
0.0625 0.03125 0
0.03125 0.03125 0
0.0625 0.03125 0
0.03125 0.0625 0
0.0625 0.0625 0
0.03125 0.0625 0
0.0625 0.0625 0
0.03125 0.09375 0
0.0625 0.09375 0
0.03125 0.09375 0
0.0625 0.09375 0
0.03125 0.125 0
0.0625 0.125 0
0.03125 0.125 0
0.0625 0.125 0
0.03125 0.15625 0
0.0625 0.15625 0
0.03125 0.15625 0
0.0625 0.15625 0
0.03125 0.1875 0
0.0625 0.1875 0
0.03125 0.1875 0
0.0625 0.1875 0
0.03125 0.21875 0
0.0625 0.21875 0
0.03125 0.21875 0
0.0625 0.21875 0
0.03125 0.25 0
0.0625 0.25 0
0.03125 0.25 0
0.0625 0.25 0
0.03125 0.28125 0
0.0625 0.28125 0
0.03125 0.28125 0
0.0625 0.28125 0
0.03125 0.3125 0
0.0625 0.3125 0
0.03125 0.3125 0
0.0625 0.3125 0
0.03125 0.34375 0
0.0625 0.34375 0
0.03125 0.34375 0
0.0625 0.34375 0
0.03125 0.375 0
0.0625 0.375 0
0.03125 0.375 0
0.0625 0.375 0
0.03125 0.40625 0
0.0625 0.40625 0
0.03125 0.40625 0
0.0625 0.40625 0
0.03125 0.4375 0
0.0625 0.4375 0
0.03125 0.4375 0
0.0625 0.4375 0
0.03125 0.46875 0
0.0625 0.46875 0
0.03125 0.46875 0
0.0625 0.46875 0
0.03125 0.5 0
0.0625 0.5 0
0.03125 0.5 0
0.0625 0.5 0
0.03125 0.53125 0
0.0625 0.53125 0
0.03125 0.53125 0
0.0625 0.53125 0
0.03125 0.5625 0
0.0625 0.5625 0
0.03125 0.5625 0
0.0625 0.5625 0
0.03125 0.59375 0
0.0625 0.59375 0
0.03125 0.59375 0
0.0625 0.59375 0
0.03125 0.625 0
0.0625 0.625 0
0.03125 0.625 0
0.0625 0.625 0
0.03125 0.65625 0
0.0625 0.65625 0
0.03125 0.65625 0
0.0625 0.65625 0
0.03125 0.6875 0
0.0625 0.6875 0
0.03125 0.6875 0
0.0625 0.6875 0
0.03125 0.71875 0
0.0625 0.71875 0
0.03125 0.71875 0
0.0625 0.71875 0
0.03125 0.75 0
0.0625 0.75 0
0.03125 0.75 0
0.0625 0.75 0
0.03125 0.78125 0
0.0625 0.78125 0
0.03125 0.78125 0
0.0625 0.78125 0
0.03125 0.8125 0
0.0625 0.8125 0
0.03125 0.8125 0
0.0625 0.8125 0
0.03125 0.84375 0
0.0625 0.84375 0
0.03125 0.84375 0
0.0625 0.84375 0
0.03125 0.875 0
0.0625 0.875 0
0.03125 0.875 0
0.0625 0.875 0
0.03125 0.90625 0
0.0625 0.90625 0
0.03125 0.90625 0
0.0625 0.90625 0
0.03125 0.9375 0
0.0625 0.9375 0
0.03125 0.9375 0
0.0625 0.9375 0
0.03125 0.96875 0
0.0625 0.96875 0
0.03125 0.96875 0
0.0625 0.96875 0
0.03125 1 0
0.0625 1 0
0.0625 0 0
0.09375 0 0
0.0625 0.03125 0
0.09375 0.03125 0
0.0625 0.03125 0
0.09375 0.03125 0
0.0625 0.0625 0
0.09375 0.0625 0
0.0625 0.0625 0
0.09375 0.0625 0
0.0625 0.09375 0
0.09375 0.09375 0
0.0625 0.09375 0
0.09375 0.09375 0
0.0625 0.125 0
0.09375 0.125 0
0.0625 0.125 0
0.09375 0.125 0
0.0625 0.15625 0
0.09375 0.15625 0
0.0625 0.15625 0
0.09375 0.15625 0
0.0625 0.1875 0
0.09375 0.1875 0
0.0625 0.1875 0
0.09375 0.1875 0
0.0625 0.21875 0
0.09375 0.21875 0
0.0625 0.21875 0
0.09375 0.21875 0
0.0625 0.25 0
0.09375 0.25 0
0.0625 0.25 0
0.09375 0.25 0
0.0625 0.28125 0
0.09375 0.28125 0
0.0625 0.28125 0
0.09375 0.28125 0
0.0625 0.3125 0
0.09375 0.3125 0
0.0625 0.3125 0
0.09375 0.3125 0
0.0625 0.34375 0
0.09375 0.34375 0
0.0625 0.34375 0
0.09375 0.34375 0
0.0625 0.375 0
0.09375 0.375 0
0.0625 0.375 0
0.09375 0.375 0
0.0625 0.40625 0
0.09375 0.40625 0
0.0625 0.40625 0
0.09375 0.40625 0
0.0625 0.4375 0
0.09375 0.4375 0
0.0625 0.4375 0
0.09375 0.4375 0
0.0625 0.46875 0
0.09375 0.46875 0
0.0625 0.46875 0
0.09375 0.46875 0
0.0625 0.5 0
0.09375 0.5 0
0.0625 0.5 0
0.09375 0.5 0
0.0625 0.53125 0
0.09375 0.53125 0
0.0625 0.53125 0
0.09375 0.53125 0
0.0625 0.5625 0
0.09375 0.5625 0
0.0625 0.5625 0
0.09375 0.5625 0
0.0625 0.59375 0
0.09375 0.59375 0
0.0625 0.59375 0
0.09375 0.59375 0
0.0625 0.625 0
0.09375 0.625 0
0.0625 0.625 0
0.09375 0.625 0
0.0625 0.65625 0
0.09375 0.65625 0
0.0625 0.65625 0
0.09375 0.65625 0
0.0625 0.6875 0
0.09375 0.6875 0
0.0625 0.6875 0
0.09375 0.6875 0
0.0625 0.71875 0
0.09375 0.71875 0
0.0625 0.71875 0
0.09375 0.71875 0
0.0625 0.75 0
0.09375 0.75 0
0.0625 0.75 0
0.09375 0.75 0
0.0625 0.78125 0
0.09375 0.78125 0
0.0625 0.78125 0
0.09375 0.78125 0
0.0625 0.8125 0
0.09375 0.8125 0
0.0625 0.8125 0
0.09375 0.8125 0
0.0625 0.84375 0
0.09375 0.84375 0
0.0625 0.84375 0
0.09375 0.84375 0
0.0625 0.875 0
0.09375 0.875 0
0.0625 0.875 0
0.09375 0.875 0
0.0625 0.90625 0
0.09375 0.90625 0
0.0625 0.90625 0
0.09375 0.90625 0
0.0625 0.9375 0
0.09375 0.9375 0
0.0625 0.9375 0
0.09375 0.9375 0
0.0625 0.96875 0
0.09375 0.96875 0
0.0625 0.96875 0
0.09375 0.96875 0
0.0625 1 0
0.09375 1 0
0.09375 0 0
0.125 0 0
0.09375 0.03125 0
0.125 0.03125 0
0.09375 0.03125 0
0.125 0.03125 0
0.09375 0.0625 0
0.125 0.0625 0
0.09375 0.0625 0
0.125 0.0625 0
0.09375 0.09375 0
0.125 0.09375 0
0.09375 0.09375 0
0.125 0.09375 0
0.09375 0.125 0
0.125 0.125 0
0.09375 0.125 0
0.125 0.125 0
0.09375 0.15625 0
0.125 0.15625 0
0.09375 0.15625 0
0.125 0.15625 0
0.09375 0.1875 0
0.125 0.1875 0
0.09375 0.1875 0
0.125 0.1875 0
0.09375 0.21875 0
0.125 0.21875 0
0.09375 0.21875 0
0.125 0.21875 0
0.09375 0.25 0
0.125 0.25 0
0.09375 0.25 0
0.125 0.25 0
0.09375 0.28125 0
0.125 0.28125 0
0.09375 0.28125 0
0.125 0.28125 0
0.09375 0.3125 0
0.125 0.3125 0
0.09375 0.3125 0
0.125 0.3125 0
0.09375 0.34375 0
0.125 0.34375 0
0.09375 0.34375 0
0.125 0.34375 0
0.09375 0.375 0
0.125 0.375 0
0.09375 0.375 0
0.125 0.375 0
0.09375 0.40625 0
0.125 0.40625 0
0.09375 0.40625 0
0.125 0.40625 0
0.09375 0.4375 0
0.125 0.4375 0
0.09375 0.4375 0
0.125 0.4375 0
0.09375 0.46875 0
0.125 0.46875 0
0.09375 0.46875 0
0.125 0.46875 0
0.09375 0.5 0
0.125 0.5 0
0.09375 0.5 0
0.125 0.5 0
0.09375 0.53125 0
0.125 0.53125 0
0.09375 0.53125 0
0.125 0.53125 0
0.09375 0.5625 0
0.125 0.5625 0
0.09375 0.5625 0
0.125 0.5625 0
0.09375 0.59375 0
0.125 0.59375 0
0.09375 0.59375 0
0.125 0.59375 0
0.09375 0.625 0
0.125 0.625 0
0.09375 0.625 0
0.125 0.625 0
0.09375 0.65625 0
0.125 0.65625 0
0.09375 0.65625 0
0.125 0.65625 0
0.09375 0.6875 0
0.125 0.6875 0
0.09375 0.6875 0
0.125 0.6875 0
0.09375 0.71875 0
0.125 0.71875 0
0.09375 0.71875 0
0.125 0.71875 0
0.09375 0.75 0
0.125 0.75 0
0.09375 0.75 0
0.125 0.75 0
0.09375 0.78125 0
0.125 0.78125 0
0.09375 0.78125 0
0.125 0.78125 0
0.09375 0.8125 0
0.125 0.8125 0
0.09375 0.8125 0
0.125 0.8125 0
0.09375 0.84375 0
0.125 0.84375 0
0.09375 0.84375 0
0.125 0.84375 0
0.09375 0.875 0
0.125 0.875 0
0.09375 0.875 0
0.125 0.875 0
0.09375 0.90625 0
0.125 0.90625 0
0.09375 0.90625 0
0.125 0.90625 0
0.09375 0.9375 0
0.125 0.9375 0
0.09375 0.9375 0
0.125 0.9375 0
0.09375 0.96875 0
0.125 0.96875 0
0.09375 0.96875 0
0.125 0.96875 0
0.09375 1 0
0.125 1 0
0.125 0 0
0.15625 0 0
0.125 0.03125 0
0.15625 0.03125 0
0.125 0.03125 0
0.15625 0.03125 0
0.125 0.0625 0
0.15625 0.0625 0
0.125 0.0625 0
0.15625 0.0625 0
0.125 0.09375 0
0.15625 0.09375 0
0.125 0.09375 0
0.15625 0.09375 0
0.125 0.125 0
0.15625 0.125 0
0.125 0.125 0
0.15625 0.125 0
0.125 0.15625 0
0.15625 0.15625 0
0.125 0.15625 0
0.15625 0.15625 0
0.125 0.1875 0
0.15625 0.1875 0
0.125 0.1875 0
0.15625 0.1875 0
0.125 0.21875 0
0.15625 0.21875 0
0.125 0.21875 0
0.15625 0.21875 0
0.125 0.25 0
0.15625 0.25 0
0.125 0.25 0
0.15625 0.25 0
0.125 0.28125 0
0.15625 0.28125 0
0.125 0.28125 0
0.15625 0.28125 0
0.125 0.3125 0
0.15625 0.3125 0
0.125 0.3125 0
0.15625 0.3125 0
0.125 0.34375 0
0.15625 0.34375 0
0.125 0.34375 0
0.15625 0.34375 0
0.125 0.375 0
0.15625 0.375 0
0.125 0.375 0
0.15625 0.375 0
0.125 0.40625 0
0.15625 0.40625 0
0.125 0.40625 0
0.15625 0.40625 0
0.125 0.4375 0
0.15625 0.4375 0
0.125 0.4375 0
0.15625 0.4375 0
0.125 0.46875 0
0.15625 0.46875 0
0.125 0.46875 0
0.15625 0.46875 0
0.125 0.5 0
0.15625 0.5 0
0.125 0.5 0
0.15625 0.5 0
0.125 0.53125 0
0.15625 0.53125 0
0.125 0.53125 0
0.15625 0.53125 0
0.125 0.5625 0
0.15625 0.5625 0
0.125 0.5625 0
0.15625 0.5625 0
0.125 0.59375 0
0.15625 0.59375 0
0.125 0.59375 0
0.15625 0.59375 0
0.125 0.625 0
0.15625 0.625 0
0.125 0.625 0
0.15625 0.625 0
0.125 0.65625 0
0.15625 0.65625 0
0.125 0.65625 0
0.15625 0.65625 0
0.125 0.6875 0
0.15625 0.6875 0
0.125 0.6875 0
0.15625 0.6875 0
0.125 0.71875 0
0.15625 0.71875 0
0.125 0.71875 0
0.15625 0.71875 0
0.125 0.75 0
0.15625 0.75 0
0.125 0.75 0
0.15625 0.75 0
0.125 0.78125 0
0.15625 0.78125 0
0.125 0.78125 0
0.15625 0.78125 0
0.125 0.8125 0
0.15625 0.8125 0
0.125 0.8125 0
0.15625 0.8125 0
0.125 0.84375 0
0.15625 0.84375 0
0.125 0.84375 0
0.15625 0.84375 0
0.125 0.875 0
[...]
POINT_DATA 4096
VECTORS velocity double
0 0 0
0.0980171 0 0
0 -0.0980171 0
0.0975486 -0.0975451 0
0 -0.0980171 0
0.0975486 -0.0975451 0
0 -0.19509 0
0.0961378 -0.19415 0
0 -0.19509 0
0.0961378 -0.19415 0
0 -0.290285 0
0.0938002 -0.288885 0
0 -0.290285 0
0.0938002 -0.288885 0
0 -0.382683 0
0.0905595 -0.380839 0
0 -0.382683 0
0.0905595 -0.380839 0
0 -0.471397 0
0.0864467 -0.469126 0
0 -0.471397 0
0.0864467 -0.469126 0
0 -0.55557 0
0.0815016 -0.552894 0
0 -0.55557 0
0.0815016 -0.552894 0
0 -0.634393 0
0.0757717 -0.631339 0
0 -0.634393 0
0.0757717 -0.631339 0
0 -0.707107 0
0.0693121 -0.703703 0
0 -0.707107 0
0.0693121 -0.703703 0
0 -0.77301 0
0.0621851 -0.76929 0
0 -0.77301 0
0.0621851 -0.76929 0
0 -0.83147 0
0.0544592 -0.827469 0
0 -0.83147 0
0.0544592 -0.827469 0
0 -0.881921 0
0.0462088 -0.877678 0
0 -0.881921 0
0.0462088 -0.877678 0
0 -0.92388 0
0.0375133 -0.919434 0
0 -0.92388 0
0.0375133 -0.919434 0
0 -0.95694 0
0.0284565 -0.952335 0
0 -0.95694 0
0.0284565 -0.952335 0
0 -0.980785 0
0.0191255 -0.976065 0
0 -0.980785 0
0.0191255 -0.976065 0
0 -0.995185 0
0.00961038 -0.990395 0
0 -0.995185 0
0.00961038 -0.990395 0
0 -1 0
2.66675e-06 -0.995187 0
0 -1 0
2.66675e-06 -0.995187 0
0 -0.995185 0
-0.00960507 -0.990394 0
0 -0.995185 0
-0.00960507 -0.990394 0
0 -0.980785 0
-0.0191203 -0.976064 0
0 -0.980785 0
-0.0191203 -0.976064 0
0 -0.95694 0
-0.0284514 -0.952334 0
0 -0.95694 0
-0.0284514 -0.952334 0
0 -0.92388 0
-0.0375084 -0.919432 0
0 -0.92388 0
-0.0375084 -0.919432 0
0 -0.881921 0
-0.0462042 -0.877676 0
0 -0.881921 0
-0.0462042 -0.877676 0
0 -0.83147 0
-0.054455 -0.827467 0
0 -0.83147 0
-0.054455 -0.827467 0
0 -0.77301 0
-0.0621813 -0.76929 0
0 -0.77301 0
-0.0621813 -0.76929 0
0 -0.707107 0
-0.0693087 -0.703704 0
0 -0.707107 0
-0.0693087 -0.703704 0
0 -0.634393 0
-0.0757685 -0.631341 0
0 -0.634393 0
-0.0757685 -0.631341 0
0 -0.55557 0
-0.0814985 -0.552897 0
0 -0.55557 0
-0.0814985 -0.552897 0
0 -0.471397 0
-0.0864436 -0.46913 0
0 -0.471397 0
-0.0864436 -0.46913 0
0 -0.382683 0
-0.090556 -0.380844 0
0 -0.382683 0
-0.090556 -0.380844 0
0 -0.290285 0
-0.0937965 -0.28889 0
0 -0.290285 0
-0.0937965 -0.28889 0
0 -0.19509 0
-0.0961332 -0.194153 0
0 -0.19509 0
-0.0961332 -0.194153 0
0 -0.0980171 0
-0.0975453 -0.0975474 0
0 -0.0980171 0
-0.0975453 -0.0975474 0
0 -1.22465e-16 0
-0.0980171 -1.21875e-16 0
0.0980171 0 0
0.19509 0 0
0.0975486 -0.0975451 0
0.194155 -0.0961338 0
0.0975486 -0.0975451 0
0.194155 -0.0961338 0
0.0961378 -0.19415 0
0.191347 -0.19134 0
0.0961378 -0.19415 0
0.191347 -0.19134 0
0.0938002 -0.288885 0
0.186695 -0.284705 0
0.0938002 -0.288885 0
0.186695 -0.284705 0
0.0905595 -0.380839 0
0.180245 -0.375329 0
0.0905595 -0.380839 0
0.180245 -0.375329 0
0.0864467 -0.469126 0
0.172059 -0.462338 0
0.0864467 -0.469126 0
0.172059 -0.462338 0
0.0815016 -0.552894 0
0.162217 -0.544895 0
0.0815016 -0.552894 0
0.162217 -0.544895 0
0.0757717 -0.631339 0
0.150812 -0.622205 0
0.0757717 -0.631339 0
0.150812 -0.622205 0
0.0693121 -0.703703 0
0.137956 -0.693523 0
0.0693121 -0.703703 0
0.137956 -0.693523 0
0.0621851 -0.76929 0
0.12377 -0.758162 0
0.0621851 -0.76929 0
0.12377 -0.758162 0
0.0544592 -0.827469 0
0.108393 -0.815499 0
0.0544592 -0.827469 0
0.108393 -0.815499 0
0.0462088 -0.877678 0
0.0919713 -0.864981 0
0.0462088 -0.877678 0
0.0919713 -0.864981 0
0.0375133 -0.919434 0
0.0746641 -0.906133 0
0.0375133 -0.919434 0
0.0746641 -0.906133 0
0.0284565 -0.952335 0
0.0566378 -0.938558 0
0.0284565 -0.952335 0
0.0566378 -0.938558 0
0.0191255 -0.976065 0
0.038066 -0.961945 0
0.0191255 -0.976065 0
0.038066 -0.961945 0
0.00961038 -0.990395 0
0.0191276 -0.976067 0
0.00961038 -0.990395 0
0.0191276 -0.976067 0
2.66675e-06 -0.995187 0
5.00965e-06 -0.980789 0
2.66675e-06 -0.995187 0
5.00965e-06 -0.980789 0
-0.00960507 -0.990394 0
-0.0191176 -0.976066 0
-0.00960507 -0.990394 0
-0.0191176 -0.976066 0
-0.0191203 -0.976064 0
-0.0380562 -0.961942 0
-0.0191203 -0.976064 0
-0.0380562 -0.961942 0
-0.0284514 -0.952334 0
-0.0566282 -0.938555 0
-0.0284514 -0.952334 0
-0.0566282 -0.938555 0
-0.0375084 -0.919432 0
-0.0746547 -0.90613 0
-0.0375084 -0.919432 0
-0.0746547 -0.90613 0
-0.0462042 -0.877676 0
-0.0919623 -0.864978 0
-0.0462042 -0.877676 0
-0.0919623 -0.864978 0
-0.054455 -0.827467 0
-0.108384 -0.815495 0
-0.054455 -0.827467 0
-0.108384 -0.815495 0
-0.0621813 -0.76929 0
-0.123762 -0.75816 0
-0.0621813 -0.76929 0
-0.123762 -0.75816 0
-0.0693087 -0.703704 0
-0.137948 -0.693523 0
-0.0693087 -0.703704 0
-0.137948 -0.693523 0
-0.0757685 -0.631341 0
-0.150805 -0.622207 0
-0.0757685 -0.631341 0
-0.150805 -0.622207 0
-0.0814985 -0.552897 0
-0.16221 -0.544899 0
-0.0814985 -0.552897 0
-0.16221 -0.544899 0
-0.0864436 -0.46913 0
-0.172053 -0.462343 0
-0.0864436 -0.46913 0
-0.172053 -0.462343 0
-0.090556 -0.380844 0
-0.180238 -0.375334 0
-0.090556 -0.380844 0
-0.180238 -0.375334 0
-0.0937965 -0.28889 0
-0.186688 -0.284711 0
-0.0937965 -0.28889 0
-0.186688 -0.284711 0
-0.0961332 -0.194153 0
-0.19134 -0.191345 0
-0.0961332 -0.194153 0
-0.19134 -0.191345 0
-0.0975453 -0.0975474 0
-0.19415 -0.0961367 0
-0.0975453 -0.0975474 0
-0.19415 -0.0961367 0
-0.0980171 -1.21875e-16 0
-0.19509 -1.20112e-16 0
0.19509 0 0
0.290285 0 0
0.194155 -0.0961338 0
0.288891 -0.0937972 0
0.194155 -0.0961338 0
0.288891 -0.0937972 0
0.191347 -0.19134 0
0.284713 -0.186689 0
0.191347 -0.19134 0
0.284713 -0.186689 0
0.186695 -0.284705 0
0.277792 -0.277784 0
0.186695 -0.284705 0
0.277792 -0.277784 0
0.180245 -0.375329 0
0.268195 -0.366204 0
0.180245 -0.375329 0
0.268195 -0.366204 0
0.172059 -0.462338 0
0.256015 -0.451099 0
0.172059 -0.462338 0
0.256015 -0.451099 0
0.162217 -0.544895 0
0.24137 -0.531649 0
0.162217 -0.544895 0
0.24137 -0.531649 0
0.150812 -0.622205 0
0.224401 -0.60708 0
0.150812 -0.622205 0
0.224401 -0.60708 0
0.137956 -0.693523 0
0.20527 -0.676664 0
0.137956 -0.693523 0
0.20527 -0.676664 0
0.12377 -0.758162 0
0.184163 -0.739732 0
0.12377 -0.758162 0
0.184163 -0.739732 0
0.108393 -0.815499 0
0.161282 -0.795674 0
0.108393 -0.815499 0
0.161282 -0.795674 0
0.0919713 -0.864981 0
0.136848 -0.843954 0
0.0919713 -0.864981 0
0.136848 -0.843954 0
0.0746641 -0.906133 0
0.111096 -0.884105 0
0.0746641 -0.906133 0
0.111096 -0.884105 0
0.0566378 -0.938558 0
0.0842734 -0.915742 0
0.0566378 -0.938558 0
0.0842734 -0.915742 0
0.038066 -0.961945 0
0.0566396 -0.938559 0
0.038066 -0.961945 0
0.0566396 -0.938559 0
0.0191276 -0.976067 0
0.0284604 -0.952338 0
0.0191276 -0.976067 0
0.0284604 -0.952338 0
5.00965e-06 -0.980789 0
7.05152e-06 -0.956945 0
5.00965e-06 -0.980789 0
7.05152e-06 -0.956945 0
-0.0191176 -0.976066 0
-0.0284463 -0.952337 0
-0.0191176 -0.976066 0
-0.0284463 -0.952337 0
-0.0380562 -0.961942 0
-0.0566258 -0.938557 0
-0.0380562 -0.961942 0
-0.0566258 -0.938557 0
-0.0566282 -0.938555 0
-0.0842598 -0.915738 0
-0.0566282 -0.938555 0
-0.0842598 -0.915738 0
-0.0746547 -0.90613 0
-0.111082 -0.884101 0
-0.0746547 -0.90613 0
-0.111082 -0.884101 0
-0.0919623 -0.864978 0
-0.136835 -0.843949 0
-0.0919623 -0.864978 0
-0.136835 -0.843949 0
-0.108384 -0.815495 0
-0.16127 -0.79567 0
-0.108384 -0.815495 0
-0.16127 -0.79567 0
-0.123762 -0.75816 0
-0.184152 -0.739728 0
-0.123762 -0.75816 0
-0.184152 -0.739728 0
-0.137948 -0.693523 0
-0.205259 -0.676663 0
-0.137948 -0.693523 0
-0.205259 -0.676663 0
-0.150805 -0.622207 0
-0.22439 -0.60708 0
-0.150805 -0.622207 0
-0.22439 -0.60708 0
-0.16221 -0.544899 0
-0.24136 -0.531652 0
-0.16221 -0.544899 0
-0.24136 -0.531652 0
-0.172053 -0.462343 0
-0.256006 -0.451103 0
-0.172053 -0.462343 0
-0.256006 -0.451103 0
-0.180238 -0.375334 0
-0.268185 -0.366209 0
-0.180238 -0.375334 0
-0.268185 -0.366209 0
-0.186688 -0.284711 0
-0.277782 -0.277788 0
-0.186688 -0.284711 0
-0.277782 -0.277788 0
-0.19134 -0.191345 0
-0.284704 -0.186692 0
-0.19134 -0.191345 0
-0.284704 -0.186692 0
-0.19415 -0.0961367 0
-0.288885 -0.0937987 0
-0.19415 -0.0961367 0
-0.288885 -0.0937987 0
-0.19509 -1.20112e-16 0
-0.290285 -1.17191e-16 0
0.290285 0 0
0.382683 0 0
0.288891 -0.0937972 0
0.380845 -0.0905571 0
0.288891 -0.0937972 0
0.380845 -0.0905571 0
0.284713 -0.186689 0
0.375337 -0.18024 0
0.284713 -0.186689 0
0.375337 -0.18024 0
0.277792 -0.277784 0
0.366213 -0.268188 0
0.277792 -0.277784 0
0.366213 -0.268188 0
0.268195 -0.366204 0
0.353561 -0.353554 0
0.268195 -0.366204 0
0.353561 -0.353554 0
0.256015 -0.451099 0
0.337505 -0.435516 0
0.256015 -0.451099 0
0.337505 -0.435516 0
0.24137 -0.531649 0
0.318198 -0.513284 0
0.24137 -0.531649 0
0.318198 -0.513284 0
0.224401 -0.60708 0
0.295828 -0.586109 0
0.224401 -0.60708 0
0.295828 -0.586109 0
0.20527 -0.676664 0
0.270608 -0.653289 0
0.20527 -0.676664 0
0.270608 -0.653289 0
0.184163 -0.739732 0
0.242782 -0.714177 0
0.184163 -0.739732 0
0.242782 -0.714177 0
0.161282 -0.795674 0
0.212617 -0.768187 0
0.161282 -0.795674 0
0.212617 -0.768187 0
0.136848 -0.843954 0
0.180406 -0.814799 0
0.136848 -0.843954 0
0.180406 -0.814799 0
0.111096 -0.884105 0
0.146456 -0.853563 0
0.111096 -0.884105 0
0.146456 -0.853563 0
0.0842734 -0.915742 0
0.111097 -0.884106 0
0.0842734 -0.915742 0
0.111097 -0.884106 0
0.0566396 -0.938559 0
0.0746673 -0.906135 0
0.0566396 -0.938559 0
0.0746673 -0.906135 0
0.0284604 -0.952338 0
0.0375187 -0.919438 0
0.0284604 -0.952338 0
0.0375187 -0.919438 0
7.05152e-06 -0.956945 0
8.72239e-06 -0.923885 0
7.05152e-06 -0.956945 0
8.72239e-06 -0.923885 0
-0.0284463 -0.952337 0
-0.0375013 -0.919436 0
-0.0284463 -0.952337 0
-0.0375013 -0.919436 0
-0.0566258 -0.938557 0
-0.0746502 -0.906132 0
-0.0566258 -0.938557 0
-0.0746502 -0.906132 0
-0.0842598 -0.915738 0
-0.11108 -0.884102 0
-0.0842598 -0.915738 0
-0.11108 -0.884102 0
-0.111082 -0.884101 0
-0.14644 -0.853557 0
-0.111082 -0.884101 0
-0.14644 -0.853557 0
-0.136835 -0.843949 0
-0.18039 -0.814793 0
-0.136835 -0.843949 0
-0.18039 -0.814793 0
-0.16127 -0.79567 0
-0.212603 -0.768182 0
-0.16127 -0.79567 0
-0.212603 -0.768182 0
-0.184152 -0.739728 0
-0.242768 -0.714173 0
-0.184152 -0.739728 0
-0.242768 -0.714173 0
-0.205259 -0.676663 0
-0.270594 -0.653286 0
-0.205259 -0.676663 0
-0.270594 -0.653286 0
-0.22439 -0.60708 0
-0.295815 -0.586107 0
-0.22439 -0.60708 0
-0.295815 -0.586107 0
-0.24136 -0.531652 0
-0.318186 -0.513284 0
-0.24136 -0.531652 0
-0.318186 -0.513284 0
-0.256006 -0.451103 0
-0.337493 -0.435518 0
-0.256006 -0.451103 0
-0.337493 -0.435518 0
-0.268185 -0.366209 0
-0.35355 -0.353557 0
-0.268185 -0.366209 0
-0.35355 -0.353557 0
-0.277782 -0.277788 0
-0.366202 -0.268191 0
-0.277782 -0.277788 0
-0.366202 -0.268191 0
-0.284704 -0.186692 0
-0.375327 -0.180242 0
-0.284704 -0.186692 0
-0.375327 -0.180242 0
-0.288885 -0.0937987 0
-0.380839 -0.0905578 0
-0.288885 -0.0937987 0
-0.380839 -0.0905578 0
-0.290285 -1.17191e-16 0
-0.382683 -1.13143e-16 0
0.382683 0 0
0.471397 0 0
0.380845 -0.0905571 0
0.469131 -0.086445 0
0.380845 -0.0905571 0
0.469131 -0.086445 0
0.375337 -0.18024 0
0.462345 -0.172055 0
0.375337 -0.18024 0
0.462345 -0.172055 0
0.366213 -0.268188 0
0.451106 -0.256009 0
0.366213 -0.268188 0
0.451106 -0.256009 0
0.353561 -0.353554 0
0.435522 -0.337498 0
0.353561 -0.353554 0
0.435522 -0.337498 0
0.337505 -0.435516 0
0.415744 -0.415738 0
0.337505 -0.435516 0
0.415744 -0.415738 0
0.318198 -0.513284 0
0.391962 -0.489974 0
0.318198 -0.513284 0
0.391962 -0.489974 0
0.295828 -0.586109 0
0.364405 -0.559492 0
0.295828 -0.586109 0
0.364405 -0.559492 0
0.270608 -0.653289 0
0.333338 -0.623622 0
0.270608 -0.653289 0
0.333338 -0.623622 0
0.242782 -0.714177 0
0.299061 -0.681745 0
0.242782 -0.714177 0
0.299061 -0.681745 0
0.212617 -0.768187 0
0.261904 -0.733302 0
0.212617 -0.768187 0
0.261904 -0.733302 0
0.180406 -0.814799 0
0.222225 -0.777796 0
0.180406 -0.814799 0
0.222225 -0.777796 0
0.146456 -0.853563 0
0.180406 -0.8148 0
0.146456 -0.853563 0
0.180406 -0.8148 0
0.111097 -0.884106 0
0.13685 -0.843956 0
0.111097 -0.884106 0
0.13685 -0.843956 0
0.0746673 -0.906135 0
0.0919753 -0.864984 0
0.0746673 -0.906135 0
0.0919753 -0.864984 0
0.0375187 -0.919438 0
0.0462152 -0.877682 0
0.0375187 -0.919438 0
0.0462152 -0.877682 0
8.72239e-06 -0.923885 0
9.92922e-06 -0.881927 0
8.72239e-06 -0.923885 0
9.92922e-06 -0.881927 0
-0.0375013 -0.919436 0
-0.0461954 -0.87768 0
-0.0375013 -0.919436 0
-0.0461954 -0.87768 0
-0.0746502 -0.906132 0
-0.091956 -0.86498 0
-0.0746502 -0.906132 0
-0.091956 -0.86498 0
-0.11108 -0.884102 0
-0.136831 -0.84395 0
-0.11108 -0.884102 0
-0.136831 -0.84395 0
-0.14644 -0.853557 0
-0.180388 -0.814793 0
-0.14644 -0.853557 0
-0.180388 -0.814793 0
-0.18039 -0.814793 0
-0.222208 -0.777789 0
-0.18039 -0.814793 0
-0.222208 -0.777789 0
-0.212603 -0.768182 0
-0.261888 -0.733295 0
-0.212603 -0.768182 0
-0.261888 -0.733295 0
-0.242768 -0.714173 0
-0.299046 -0.681738 0
-0.242768 -0.714173 0
-0.299046 -0.681738 0
-0.270594 -0.653286 0
-0.333323 -0.623617 0
-0.270594 -0.653286 0
-0.333323 -0.623617 0
-0.295815 -0.586107 0
-0.364391 -0.559489 0
-0.295815 -0.586107 0
-0.364391 -0.559489 0
-0.318186 -0.513284 0
-0.391948 -0.489973 0
-0.318186 -0.513284 0
-0.391948 -0.489973 0
-0.337493 -0.435518 0
-0.415731 -0.415738 0
-0.337493 -0.435518 0
-0.415731 -0.415738 0
-0.35355 -0.353557 0
-0.43551 -0.337499 0
-0.35355 -0.353557 0
-0.43551 -0.337499 0
-0.366202 -0.268191 0
-0.451094 -0.25601 0
-0.366202 -0.268191 0
-0.451094 -0.25601 0
-0.375327 -0.180242 0
-0.462335 -0.172056 0
-0.375327 -0.180242 0
-0.462335 -0.172056 0
-0.380839 -0.0905578 0
-0.469125 -0.0864447 0
-0.380839 -0.0905578 0
-0.469125 -0.0864447 0
-0.382683 -1.13143e-16 0
-0.471397 -1.08004e-16 0
0.471397 0 0
0.55557 0 0
0.469131 -0.086445 0
0.552899 -0.0815002 0
0.469131 -0.086445 0
0.552899 -0.0815002 0
0.462345 -0.172055 0
0.544901 -0.162213 0
0.462345 -0.172055 0
0.544901 -0.162213 0
0.451106 -0.256009 0
0.531655 -0.241365 0
0.451106 -0.256009 0
0.531655 -0.241365 0
0.435522 -0.337498 0
0.513288 -0.318192 0
0.435522 -0.337498 0
0.513288 -0.318192 0
0.415744 -0.415738 0
0.489978 -0.391956 0
0.415744 -0.415738 0
0.489978 -0.391956 0
0.391962 -0.489974 0
0.461949 -0.461946 0
0.391962 -0.489974 0
0.461949 -0.461946 0
0.364405 -0.559492 0
0.429471 -0.527487 0
0.364405 -0.559492 0
0.429471 -0.527487 0
0.333338 -0.623622 0
0.392857 -0.587948 0
0.333338 -0.623622 0
0.392857 -0.587948 0
0.299061 -0.681745 0
0.35246 -0.642746 0
0.299061 -0.681745 0
0.35246 -0.642746 0
0.261904 -0.733302 0
0.308668 -0.691354 0
0.261904 -0.733302 0
0.308668 -0.691354 0
0.222225 -0.777796 0
0.261904 -0.733303 0
0.222225 -0.777796 0
0.261904 -0.733303 0
0.180406 -0.8148 0
0.212618 -0.768189 0
0.180406 -0.8148 0
0.212618 -0.768189 0
0.13685 -0.843956 0
0.161284 -0.795677 0
0.13685 -0.843956 0
0.161284 -0.795677 0
0.0919753 -0.864984 0
0.108397 -0.815502 0
0.0919753 -0.864984 0
0.108397 -0.815502 0
0.0462152 -0.877682 0
0.0544661 -0.827473 0
0.0462152 -0.877682 0
0.0544661 -0.827473 0
9.92922e-06 -0.881927 0
1.06075e-05 -0.831475 0
9.92922e-06 -0.881927 0
1.06075e-05 -0.831475 0
-0.0461954 -0.87768 0
-0.054445 -0.82747 0
-0.0461954 -0.87768 0
-0.054445 -0.82747 0
-0.091956 -0.86498 0
-0.108376 -0.815497 0
-0.091956 -0.86498 0
-0.108376 -0.815497 0
-0.136831 -0.84395 0
-0.161264 -0.79567 0
-0.136831 -0.84395 0
-0.161264 -0.79567 0
-0.180388 -0.814793 0
-0.212599 -0.768181 0
-0.180388 -0.814793 0
-0.212599 -0.768181 0
-0.222208 -0.777789 0
-0.261887 -0.733294 0
-0.222208 -0.777789 0
-0.261887 -0.733294 0
-0.261888 -0.733295 0
-0.308652 -0.691345 0
-0.261888 -0.733295 0
-0.308652 -0.691345 0
-0.299046 -0.681738 0
-0.352445 -0.642738 0
-0.299046 -0.681738 0
-0.352445 -0.642738 0
-0.333323 -0.623617 0
-0.392843 -0.587942 0
-0.333323 -0.623617 0
-0.392843 -0.587942 0
-0.364391 -0.559489 0
-0.429458 -0.527483 0
-0.364391 -0.559489 0
-0.429458 -0.527483 0
-0.391948 -0.489973 0
-0.461936 -0.461943 0
-0.391948 -0.489973 0
-0.461936 -0.461943 0
-0.415731 -0.415738 0
-0.489965 -0.391955 0
-0.415731 -0.415738 0
-0.489965 -0.391955 0
-0.43551 -0.337499 0
-0.513276 -0.318192 0
-0.43551 -0.337499 0
-0.513276 -0.318192 0
-0.451094 -0.25601 0
-0.531643 -0.241364 0
-0.451094 -0.25601 0
-0.531643 -0.241364 0
-0.462335 -0.172056 0
-0.544891 -0.162212 0
-0.462335 -0.172056 0
-0.544891 -0.162212 0
-0.469125 -0.0864447 0
-0.552892 -0.0814992 0
-0.469125 -0.0864447 0
-0.552892 -0.0814992 0
-0.471397 -1.08004e-16 0
-0.55557 -1.01826e-16 0
0.55557 0 0
0.634393 0 0
0.552899 -0.0815002 0
0.631341 -0.0757705 0
0.552899 -0.0815002 0
0.631341 -0.0757705 0
0.544901 -0.162213 0
0.622209 -0.150809 0
0.544901 -0.162213 0
0.622209 -0.150809 0
0.531655 -0.241365 0
0.607083 -0.224395 0
0.531655 -0.241365 0
0.607083 -0.224395 0
0.513288 -0.318192 0
0.586111 -0.295822 0
0.513288 -0.318192 0
0.586111 -0.295822 0
0.489978 -0.391956 0
0.559493 -0.3644 0
0.489978 -0.391956 0
0.559493 -0.3644 0
0.461949 -0.461946 0
0.527488 -0.429469 0
0.461949 -0.461946 0
0.527488 -0.429469 0
0.429471 -0.527487 0
0.490402 -0.490402 0
0.429471 -0.527487 0
0.490402 -0.490402 0
0.392857 -0.587948 0
0.448593 -0.546612 0
0.392857 -0.587948 0
0.448593 -0.546612 0
0.35246 -0.642746 0
0.402464 -0.597557 0
0.35246 -0.642746 0
0.402464 -0.597557 0
0.308668 -0.691354 0
0.352459 -0.642747 0
0.308668 -0.691354 0
0.352459 -0.642747 0
0.261904 -0.733303 0
0.29906 -0.681746 0
0.261904 -0.733303 0
0.29906 -0.681746 0
0.212618 -0.768189 0
0.242781 -0.714179 0
0.212618 -0.768189 0
0.242781 -0.714179 0
0.161284 -0.795677 0
0.184164 -0.739734 0
0.161284 -0.795677 0
0.184164 -0.739734 0
0.108397 -0.815502 0
0.123774 -0.758165 0
0.108397 -0.815502 0
0.123774 -0.758165 0
0.0544661 -0.827473 0
0.0621919 -0.769294 0
0.0544661 -0.827473 0
0.0621919 -0.769294 0
1.06075e-05 -0.831475 0
1.07564e-05 -0.773014 0
1.06075e-05 -0.831475 0
1.07564e-05 -0.773014 0
-0.054445 -0.82747 0
-0.0621706 -0.769291 0
-0.054445 -0.82747 0
-0.0621706 -0.769291 0
-0.108376 -0.815497 0
-0.123753 -0.758159 0
-0.108376 -0.815497 0
-0.123753 -0.758159 0
-0.161264 -0.79567 0
-0.184145 -0.739727 0
-0.161264 -0.79567 0
-0.184145 -0.739727 0
-0.212599 -0.768181 0
-0.242763 -0.71417 0
-0.212599 -0.768181 0
-0.242763 -0.71417 0
-0.261887 -0.733294 0
-0.299043 -0.681736 0
-0.261887 -0.733294 0
-0.299043 -0.681736 0
-0.308652 -0.691345 0
-0.352443 -0.642737 0
-0.308652 -0.691345 0
-0.352443 -0.642737 0
-0.352445 -0.642738 0
-0.402449 -0.597548 0
-0.352445 -0.642738 0
-0.402449 -0.597548 0
-0.392843 -0.587942 0
-0.448579 -0.546604 0
-0.392843 -0.587942 0
-0.448579 -0.546604 0
-0.429458 -0.527483 0
-0.490389 -0.490396 0
-0.429458 -0.527483 0
-0.490389 -0.490396 0
-0.461936 -0.461943 0
-0.527475 -0.429465 0
-0.461936 -0.461943 0
-0.527475 -0.429465 0
-0.489965 -0.391955 0
-0.559482 -0.364397 0
-0.489965 -0.391955 0
-0.559482 -0.364397 0
-0.513276 -0.318192 0
-0.586099 -0.29582 0
-0.513276 -0.318192 0
-0.586099 -0.29582 0
-0.531643 -0.241364 0
-0.607073 -0.224394 0
-0.531643 -0.241364 0
-0.607073 -0.224394 0
-0.544891 -0.162212 0
-0.6222 -0.150807 0
-0.544891 -0.162212 0
-0.6222 -0.150807 0
-0.552892 -0.0814992 0
-0.631336 -0.0757688 0
-0.552892 -0.0814992 0
-0.631336 -0.0757688 0
-0.55557 -1.01826e-16 0
-0.634393 -9.46665e-17 0
0.634393 0 0
0.707107 0 0
0.631341 -0.0757705 0
0.703704 -0.069311 0
0.631341 -0.0757705 0
0.703704 -0.069311 0
0.622209 -0.150809 0
0.693524 -0.137952 0
0.622209 -0.150809 0
0.693524 -0.137952 0
0.607083 -0.224395 0
0.676665 -0.205265 0
0.607083 -0.224395 0
0.676665 -0.205265 0
0.586111 -0.295822 0
0.653288 -0.270602 0
0.586111 -0.295822 0
0.653288 -0.270602 0
0.559493 -0.3644 0
0.62362 -0.333333 0
0.559493 -0.3644 0
0.62362 -0.333333 0
0.527488 -0.429469 0
0.587945 -0.392855 0
0.527488 -0.429469 0
0.587945 -0.392855 0
0.490402 -0.490402 0
0.546608 -0.448593 0
0.490402 -0.490402 0
0.546608 -0.448593 0
0.448593 -0.546612 0
0.500007 -0.500011 0
0.448593 -0.546612 0
0.500007 -0.500011 0
0.402464 -0.597557 0
0.448591 -0.546612 0
0.402464 -0.597557 0
0.448591 -0.546612 0
0.352459 -0.642747 0
0.392854 -0.587949 0
0.352459 -0.642747 0
0.392854 -0.587949 0
0.29906 -0.681746 0
0.333335 -0.623623 0
0.29906 -0.681746 0
0.333335 -0.623623 0
0.242781 -0.714179 0
0.270606 -0.653291 0
0.242781 -0.714179 0
0.270606 -0.653291 0
0.184164 -0.739734 0
0.205271 -0.676666 0
0.184164 -0.739734 0
0.205271 -0.676666 0