# vtk DataFile Version 3.0
#This file was generated by the deal.II library on 2026/5/26 at 18:57:33
ASCII
DATASET UNSTRUCTURED_GRID

POINTS 4096 double
0 0 0
0.03125 0 0
0 0.03125 0
0.03125 0.03125 0
0 0.03125 0
0.03125 0.03125 0
0 0.0625 0
0.03125 0.0625 0
0 0.0625 0
0.03125 0.0625 0
0 0.09375 0
0.03125 0.09375 0
0 0.09375 0
0.03125 0.09375 0
0 0.125 0
0.03125 0.125 0
0 0.125 0
0.03125 0.125 0
0 0.15625 0
0.03125 0.15625 0
0 0.15625 0
0.03125 0.15625 0
0 0.1875 0
0.03125 0.1875 0
0 0.1875 0
0.03125 0.1875 0
0 0.21875 0
0.03125 0.21875 0
0 0.21875 0
0.03125 0.21875 0
0 0.25 0
0.03125 0.25 0
0 0.25 0
0.03125 0.25 0
0 0.28125 0
0.03125 0.28125 0
0 0.28125 0
0.03125 0.28125 0
0 0.3125 0
0.03125 0.3125 0
0 0.3125 0
0.03125 0.3125 0
0 0.34375 0
0.03125 0.34375 0
0 0.34375 0
0.03125 0.34375 0
0 0.375 0
0.03125 0.375 0
0 0.375 0
0.03125 0.375 0
0 0.40625 0
0.03125 0.40625 0
0 0.40625 0
0.03125 0.40625 0
0 0.4375 0
0.03125 0.4375 0
0 0.4375 0
0.03125 0.4375 0
0 0.46875 0
0.03125 0.46875 0
0 0.46875 0
0.03125 0.46875 0
0 0.5 0
0.03125 0.5 0
0 0.5 0
0.03125 0.5 0
0 0.53125 0
0.03125 0.53125 0
0 0.53125 0
0.03125 0.53125 0
0 0.5625 0
0.03125 0.5625 0
0 0.5625 0
0.03125 0.5625 0
0 0.59375 0
0.03125 0.59375 0
0 0.59375 0
0.03125 0.59375 0
0 0.625 0
0.03125 0.625 0
0 0.625 0
0.03125 0.625 0
0 0.65625 0
0.03125 0.65625 0
0 0.65625 0
0.03125 0.65625 0
0 0.6875 0
0.03125 0.6875 0
0 0.6875 0
0.03125 0.6875 0
0 0.71875 0
0.03125 0.71875 0
0 0.71875 0
0.03125 0.71875 0
0 0.75 0
0.03125 0.75 0
0 0.75 0
0.03125 0.75 0
0 0.78125 0
0.03125 0.78125 0
0 0.78125 0
0.03125 0.78125 0
0 0.8125 0
0.03125 0.8125 0
0 0.8125 0
0.03125 0.8125 0
0 0.84375 0
0.03125 0.84375 0
0 0.84375 0
0.03125 0.84375 0
0 0.875 0
0.03125 0.875 0
0 0.875 0
0.03125 0.875 0
0 0.90625 0
0.03125 0.90625 0
0 0.90625 0
0.03125 0.90625 0
0 0.9375 0
0.03125 0.9375 0
0 0.9375 0
0.03125 0.9375 0
0 0.96875 0
0.03125 0.96875 0
0 0.96875 0
0.03125 0.96875 0
0 1 0
0.03125 1 0
0.03125 0 0
0.0625 0 0
0.03125 0.03125 0
0.0625 0.03125 0
0.03125 0.03125 0
0.0625 0.03125 0
0.03125 0.0625 0
0.0625 0.0625 0
0.03125 0.0625 0
0.0625 0.0625 0
0.03125 0.09375 0
0.0625 0.09375 0
0.03125 0.09375 0
0.0625 0.09375 0
0.03125 0.125 0
0.0625 0.125 0
0.03125 0.125 0
0.0625 0.125 0
0.03125 0.15625 0
0.0625 0.15625 0
0.03125 0.15625 0
0.0625 0.15625 0
0.03125 0.1875 0
0.0625 0.1875 0
0.03125 0.1875 0
0.0625 0.1875 0
0.03125 0.21875 0
0.0625 0.21875 0
0.03125 0.21875 0
0.0625 0.21875 0
0.03125 0.25 0
0.0625 0.25 0
0.03125 0.25 0
0.0625 0.25 0
0.03125 0.28125 0
0.0625 0.28125 0
0.03125 0.28125 0
0.0625 0.28125 0
0.03125 0.3125 0
0.0625 0.3125 0
0.03125 0.3125 0
0.0625 0.3125 0
0.03125 0.34375 0
0.0625 0.34375 0
0.03125 0.34375 0
0.0625 0.34375 0
0.03125 0.375 0
0.0625 0.375 0
0.03125 0.375 0
0.0625 0.375 0
0.03125 0.40625 0
0.0625 0.40625 0
0.03125 0.40625 0
0.0625 0.40625 0
0.03125 0.4375 0
0.0625 0.4375 0
0.03125 0.4375 0
0.0625 0.4375 0
0.03125 0.46875 0
0.0625 0.46875 0
0.03125 0.46875 0
0.0625 0.46875 0
0.03125 0.5 0
0.0625 0.5 0
0.03125 0.5 0
0.0625 0.5 0
0.03125 0.53125 0
0.0625 0.53125 0
0.03125 0.53125 0
0.0625 0.53125 0
0.03125 0.5625 0
0.0625 0.5625 0
0.03125 0.5625 0
0.0625 0.5625 0
0.03125 0.59375 0
0.0625 0.59375 0
0.03125 0.59375 0
0.0625 0.59375 0
0.03125 0.625 0
0.0625 0.625 0
0.03125 0.625 0
0.0625 0.625 0
0.03125 0.65625 0
0.0625 0.65625 0
0.03125 0.65625 0
0.0625 0.65625 0
0.03125 0.6875 0
0.0625 0.6875 0
0.03125 0.6875 0
0.0625 0.6875 0
0.03125 0.71875 0
0.0625 0.71875 0
0.03125 0.71875 0
0.0625 0.71875 0
0.03125 0.75 0
0.0625 0.75 0
0.03125 0.75 0
0.0625 0.75 0
0.03125 0.78125 0
0.0625 0.78125 0
0.03125 0.78125 0
0.0625 0.78125 0
0.03125 0.8125 0
0.0625 0.8125 0
0.03125 0.8125 0
0.0625 0.8125 0
0.03125 0.84375 0
0.0625 0.84375 0
0.03125 0.84375 0
0.0625 0.84375 0
0.03125 0.875 0
0.0625 0.875 0
0.03125 0.875 0
0.0625 0.875 0
0.03125 0.90625 0
0.0625 0.90625 0
0.03125 0.90625 0
0.0625 0.90625 0
0.03125 0.9375 0
0.0625 0.9375 0
0.03125 0.9375 0
0.0625 0.9375 0
0.03125 0.96875 0
0.0625 0.96875 0
0.03125 0.96875 0
0.0625 0.96875 0
0.03125 1 0
0.0625 1 0
0.0625 0 0
0.09375 0 0
0.0625 0.03125 0
0.09375 0.03125 0
0.0625 0.03125 0
0.09375 0.03125 0
0.0625 0.0625 0
0.09375 0.0625 0
0.0625 0.0625 0
0.09375 0.0625 0
0.0625 0.09375 0
0.09375 0.09375 0
0.0625 0.09375 0
0.09375 0.09375 0
0.0625 0.125 0
0.09375 0.125 0
0.0625 0.125 0
0.09375 0.125 0
0.0625 0.15625 0
0.09375 0.15625 0
0.0625 0.15625 0
0.09375 0.15625 0
0.0625 0.1875 0
0.09375 0.1875 0
0.0625 0.1875 0
0.09375 0.1875 0
0.0625 0.21875 0
0.09375 0.21875 0
0.0625 0.21875 0
0.09375 0.21875 0
0.0625 0.25 0
0.09375 0.25 0
0.0625 0.25 0
0.09375 0.25 0
0.0625 0.28125 0
0.09375 0.28125 0
0.0625 0.28125 0
0.09375 0.28125 0
0.0625 0.3125 0
0.09375 0.3125 0
0.0625 0.3125 0
0.09375 0.3125 0
0.0625 0.34375 0
0.09375 0.34375 0
0.0625 0.34375 0
0.09375 0.34375 0
0.0625 0.375 0
0.09375 0.375 0
0.0625 0.375 0
0.09375 0.375 0
0.0625 0.40625 0
0.09375 0.40625 0
0.0625 0.40625 0
0.09375 0.40625 0
0.0625 0.4375 0
0.09375 0.4375 0
0.0625 0.4375 0
0.09375 0.4375 0
0.0625 0.46875 0
0.09375 0.46875 0
0.0625 0.46875 0
0.09375 0.46875 0
0.0625 0.5 0
0.09375 0.5 0
0.0625 0.5 0
0.09375 0.5 0
0.0625 0.53125 0
0.09375 0.53125 0
0.0625 0.53125 0
0.09375 0.53125 0
0.0625 0.5625 0
0.09375 0.5625 0
0.0625 0.5625 0
0.09375 0.5625 0
0.0625 0.59375 0
0.09375 0.59375 0
0.0625 0.59375 0
0.09375 0.59375 0
0.0625 0.625 0
0.09375 0.625 0
0.0625 0.625 0
0.09375 0.625 0
0.0625 0.65625 0
0.09375 0.65625 0
0.0625 0.65625 0
0.09375 0.65625 0
0.0625 0.6875 0
0.09375 0.6875 0
0.0625 0.6875 0
0.09375 0.6875 0
0.0625 0.71875 0
0.09375 0.71875 0
0.0625 0.71875 0
0.09375 0.71875 0
0.0625 0.75 0
0.09375 0.75 0
0.0625 0.75 0
0.09375 0.75 0
0.0625 0.78125 0
0.09375 0.78125 0
0.0625 0.78125 0
0.09375 0.78125 0
0.0625 0.8125 0
0.09375 0.8125 0
0.0625 0.8125 0
0.09375 0.8125 0
0.0625 0.84375 0
0.09375 0.84375 0
0.0625 0.84375 0
0.09375 0.84375 0
0.0625 0.875 0
0.09375 0.875 0
0.0625 0.875 0
0.09375 0.875 0
0.0625 0.90625 0
0.09375 0.90625 0
0.0625 0.90625 0
0.09375 0.90625 0
0.0625 0.9375 0
0.09375 0.9375 0
0.0625 0.9375 0
0.09375 0.9375 0
0.0625 0.96875 0
0.09375 0.96875 0
0.0625 0.96875 0
0.09375 0.96875 0
0.0625 1 0
0.09375 1 0
0.09375 0 0
0.125 0 0
0.09375 0.03125 0
0.125 0.03125 0
0.09375 0.03125 0
0.125 0.03125 0
0.09375 0.0625 0
0.125 0.0625 0
0.09375 0.0625 0
0.125 0.0625 0
0.09375 0.09375 0
0.125 0.09375 0
0.09375 0.09375 0
0.125 0.09375 0
0.09375 0.125 0
0.125 0.125 0
0.09375 0.125 0
0.125 0.125 0
0.09375 0.15625 0
0.125 0.15625 0
0.09375 0.15625 0
0.125 0.15625 0
0.09375 0.1875 0
0.125 0.1875 0
0.09375 0.1875 0
0.125 0.1875 0
0.09375 0.21875 0
0.125 0.21875 0
0.09375 0.21875 0
0.125 0.21875 0
0.09375 0.25 0
0.125 0.25 0
0.09375 0.25 0
0.125 0.25 0
0.09375 0.28125 0
0.125 0.28125 0
0.09375 0.28125 0
0.125 0.28125 0
0.09375 0.3125 0
0.125 0.3125 0
0.09375 0.3125 0
0.125 0.3125 0
0.09375 0.34375 0
0.125 0.34375 0
0.09375 0.34375 0
0.125 0.34375 0
0.09375 0.375 0
0.125 0.375 0
0.09375 0.375 0
0.125 0.375 0
0.09375 0.40625 0
0.125 0.40625 0
0.09375 0.40625 0
0.125 0.40625 0
0.09375 0.4375 0
0.125 0.4375 0
0.09375 0.4375 0
0.125 0.4375 0
0.09375 0.46875 0
0.125 0.46875 0
0.09375 0.46875 0
0.125 0.46875 0
0.09375 0.5 0
0.125 0.5 0
0.09375 0.5 0
0.125 0.5 0
0.09375 0.53125 0
0.125 0.53125 0
0.09375 0.53125 0
0.125 0.53125 0
0.09375 0.5625 0
0.125 0.5625 0
0.09375 0.5625 0
0.125 0.5625 0
0.09375 0.59375 0
0.125 0.59375 0
0.09375 0.59375 0
0.125 0.59375 0
0.09375 0.625 0
0.125 0.625 0
0.09375 0.625 0
0.125 0.625 0
0.09375 0.65625 0
0.125 0.65625 0
0.09375 0.65625 0
0.125 0.65625 0
0.09375 0.6875 0
0.125 0.6875 0
0.09375 0.6875 0
0.125 0.6875 0
0.09375 0.71875 0
0.125 0.71875 0
0.09375 0.71875 0
0.125 0.71875 0
0.09375 0.75 0
0.125 0.75 0
0.09375 0.75 0
0.125 0.75 0
0.09375 0.78125 0
0.125 0.78125 0
0.09375 0.78125 0
0.125 0.78125 0
0.09375 0.8125 0
0.125 0.8125 0
0.09375 0.8125 0
0.125 0.8125 0
0.09375 0.84375 0
0.125 0.84375 0
0.09375 0.84375 0
0.125 0.84375 0
0.09375 0.875 0
0.125 0.875 0
0.09375 0.875 0
0.125 0.875 0
0.09375 0.90625 0
0.125 0.90625 0
0.09375 0.90625 0
0.125 0.90625 0
0.09375 0.9375 0
0.125 0.9375 0
0.09375 0.9375 0
0.125 0.9375 0
0.09375 0.96875 0
0.125 0.96875 0
0.09375 0.96875 0
0.125 0.96875 0
0.09375 1 0
0.125 1 0
0.125 0 0
0.15625 0 0
0.125 0.03125 0
0.15625 0.03125 0
0.125 0.03125 0
0.15625 0.03125 0
0.125 0.0625 0
0.15625 0.0625 0
0.125 0.0625 0
0.15625 0.0625 0
0.125 0.09375 0
0.15625 0.09375 0
0.125 0.09375 0
0.15625 0.09375 0
0.125 0.125 0
0.15625 0.125 0
0.125 0.125 0
0.15625 0.125 0
0.125 0.15625 0
0.15625 0.15625 0
0.125 0.15625 0
0.15625 0.15625 0
0.125 0.1875 0
0.15625 0.1875 0
0.125 0.1875 0
0.15625 0.1875 0
0.125 0.21875 0
0.15625 0.21875 0
0.125 0.21875 0
0.15625 0.21875 0
0.125 0.25 0
0.15625 0.25 0
0.125 0.25 0
0.15625 0.25 0
0.125 0.28125 0
0.15625 0.28125 0
0.125 0.28125 0
0.15625 0.28125 0
0.125 0.3125 0
0.15625 0.3125 0
0.125 0.3125 0
0.15625 0.3125 0
0.125 0.34375 0
0.15625 0.34375 0
0.125 0.34375 0
0.15625 0.34375 0
0.125 0.375 0
0.15625 0.375 0
0.125 0.375 0
0.15625 0.375 0
0.125 0.40625 0
0.15625 0.40625 0
0.125 0.40625 0
0.15625 0.40625 0
0.125 0.4375 0
0.15625 0.4375 0
0.125 0.4375 0
0.15625 0.4375 0
0.125 0.46875 0
0.15625 0.46875 0
0.125 0.46875 0
0.15625 0.46875 0
0.125 0.5 0
0.15625 0.5 0
0.125 0.5 0
0.15625 0.5 0
0.125 0.53125 0
0.15625 0.53125 0
0.125 0.53125 0
0.15625 0.53125 0
0.125 0.5625 0
0.15625 0.5625 0
0.125 0.5625 0
0.15625 0.5625 0
0.125 0.59375 0
0.15625 0.59375 0
0.125 0.59375 0
0.15625 0.59375 0
0.125 0.625 0
0.15625 0.625 0
0.125 0.625 0
0.15625 0.625 0
0.125 0.65625 0
0.15625 0.65625 0
0.125 0.65625 0
0.15625 0.65625 0
0.125 0.6875 0
0.15625 0.6875 0
0.125 0.6875 0
0.15625 0.6875 0
0.125 0.71875 0
0.15625 0.71875 0
0.125 0.71875 0
0.15625 0.71875 0
0.125 0.75 0
0.15625 0.75 0
0.125 0.75 0
0.15625 0.75 0
0.125 0.78125 0
0.15625 0.78125 0
0.125 0.78125 0
0.15625 0.78125 0
0.125 0.8125 0
0.15625 0.8125 0
0.125 0.8125 0
0.15625 0.8125 0
0.125 0.84375 0
0.15625 0.84375 0
0.125 0.84375 0
0.15625 0.84375 0
0.125 0.875 0
[...]
POINT_DATA 4096
VECTORS velocity double
0 0 0
0.0980171 0 0
0 -0.0980171 0
0.0975439 -0.097547 0
0 -0.0980171 0
0.0975439 -0.097547 0
0 -0.19509 0
0.096133 -0.194153 0
0 -0.19509 0
0.096133 -0.194153 0
0 -0.290285 0
0.0937962 -0.288889 0
0 -0.290285 0
0.0937962 -0.288889 0
0 -0.382683 0
0.090556 -0.380842 0
0 -0.382683 0
0.090556 -0.380842 0
0 -0.471397 0
0.0864436 -0.469128 0
0 -0.471397 0
0.0864436 -0.469128 0
0 -0.55557 0
0.0814985 -0.552896 0
0 -0.55557 0
0.0814985 -0.552896 0
0 -0.634393 0
0.0757686 -0.63134 0
0 -0.634393 0
0.0757686 -0.63134 0
0 -0.707107 0
0.069309 -0.703703 0
0 -0.707107 0
0.069309 -0.703703 0
0 -0.77301 0
0.0621818 -0.76929 0
0 -0.77301 0
0.0621818 -0.76929 0
0 -0.83147 0
0.0544559 -0.827468 0
0 -0.83147 0
0.0544559 -0.827468 0
0 -0.881921 0
0.0462054 -0.877676 0
0 -0.881921 0
0.0462054 -0.877676 0
0 -0.92388 0
0.03751 -0.919433 0
0 -0.92388 0
0.03751 -0.919433 0
0 -0.95694 0
0.0284533 -0.952334 0
0 -0.95694 0
0.0284533 -0.952334 0
0 -0.980785 0
0.0191226 -0.976064 0
0 -0.980785 0
0.0191226 -0.976064 0
0 -0.995185 0
0.00960776 -0.990394 0
0 -0.995185 0
0.00960776 -0.990394 0
0 -1 0
3.68616e-07 -0.995186 0
0 -1 0
3.68616e-07 -0.995186 0
0 -0.995185 0
-0.00960702 -0.990394 0
0 -0.995185 0
-0.00960702 -0.990394 0
0 -0.980785 0
-0.0191219 -0.976063 0
0 -0.980785 0
-0.0191219 -0.976063 0
0 -0.95694 0
-0.0284526 -0.952333 0
0 -0.95694 0
-0.0284526 -0.952333 0
0 -0.92388 0
-0.0375093 -0.919431 0
0 -0.92388 0
-0.0375093 -0.919431 0
0 -0.881921 0
-0.0462047 -0.877675 0
0 -0.881921 0
-0.0462047 -0.877675 0
0 -0.83147 0
-0.0544552 -0.827465 0
0 -0.83147 0
-0.0544552 -0.827465 0
0 -0.77301 0
-0.0621813 -0.769287 0
0 -0.77301 0
-0.0621813 -0.769287 0
0 -0.707107 0
-0.0693085 -0.703701 0
0 -0.707107 0
-0.0693085 -0.703701 0
0 -0.634393 0
-0.0757682 -0.631337 0
0 -0.634393 0
-0.0757682 -0.631337 0
0 -0.55557 0
-0.0814982 -0.552893 0
0 -0.55557 0
-0.0814982 -0.552893 0
0 -0.471397 0
-0.0864434 -0.469125 0
0 -0.471397 0
-0.0864434 -0.469125 0
0 -0.382683 0
-0.0905562 -0.380838 0
0 -0.382683 0
-0.0905562 -0.380838 0
0 -0.290285 0
-0.0937969 -0.288884 0
0 -0.290285 0
-0.0937969 -0.288884 0
0 -0.19509 0
-0.0961343 -0.194148 0
0 -0.19509 0
-0.0961343 -0.194148 0
0 -0.0980171 0
-0.0975461 -0.0975431 0
0 -0.0980171 0
-0.0975461 -0.0975431 0
0 -1.22465e-16 0
-0.0980171 -1.21875e-16 0
0.0980171 0 0
0.19509 0 0
0.0975439 -0.097547 0
0.194149 -0.0961358 0
0.0975439 -0.097547 0
0.194149 -0.0961358 0
0.096133 -0.194153 0
0.19134 -0.191345 0
0.096133 -0.194153 0
0.19134 -0.191345 0
0.0937962 -0.288889 0
0.186689 -0.28471 0
0.0937962 -0.288889 0
0.186689 -0.28471 0
0.090556 -0.380842 0
0.18024 -0.375333 0
0.090556 -0.380842 0
0.18024 -0.375333 0
0.0864436 -0.469128 0
0.172055 -0.462342 0
0.0864436 -0.469128 0
0.172055 -0.462342 0
0.0814985 -0.552896 0
0.162212 -0.544898 0
0.0814985 -0.552896 0
0.162212 -0.544898 0
0.0757686 -0.63134 0
0.150808 -0.622206 0
0.0757686 -0.63134 0
0.150808 -0.622206 0
0.069309 -0.703703 0
0.13795 -0.693523 0
0.069309 -0.703703 0
0.13795 -0.693523 0
0.0621818 -0.76929 0
0.123765 -0.75816 0
0.0621818 -0.76929 0
0.123765 -0.75816 0
0.0544559 -0.827468 0
0.108387 -0.815496 0
0.0544559 -0.827468 0
0.108387 -0.815496 0
0.0462054 -0.877676 0
0.0919658 -0.864978 0
0.0462054 -0.877676 0
0.0919658 -0.864978 0
0.03751 -0.919433 0
0.0746587 -0.90613 0
0.03751 -0.919433 0
0.0746587 -0.90613 0
0.0284533 -0.952334 0
0.0566325 -0.938556 0
0.0284533 -0.952334 0
0.0566325 -0.938556 0
0.0191226 -0.976064 0
0.038061 -0.961942 0
0.0191226 -0.976064 0
0.038061 -0.961942 0
0.00960776 -0.990394 0
0.0191228 -0.976065 0
0.00960776 -0.990394 0
0.0191228 -0.976065 0
3.68616e-07 -0.995186 0
5.62126e-07 -0.980787 0
3.68616e-07 -0.995186 0
5.62126e-07 -0.980787 0
-0.00960702 -0.990394 0
-0.0191217 -0.976064 0
-0.00960702 -0.990394 0
-0.0191217 -0.976064 0
-0.0191219 -0.976063 0
-0.0380598 -0.961941 0
-0.0191219 -0.976063 0
-0.0380598 -0.961941 0
-0.0284526 -0.952333 0
-0.0566314 -0.938554 0
-0.0284526 -0.952333 0
-0.0566314 -0.938554 0
-0.0375093 -0.919431 0
-0.0746576 -0.906128 0
-0.0375093 -0.919431 0
-0.0746576 -0.906128 0
-0.0462047 -0.877675 0
-0.0919648 -0.864975 0
-0.0462047 -0.877675 0
-0.0919648 -0.864975 0
-0.0544552 -0.827465 0
-0.108386 -0.815492 0
-0.0544552 -0.827465 0
-0.108386 -0.815492 0
-0.0621813 -0.769287 0
-0.123764 -0.758156 0
-0.0621813 -0.769287 0
-0.123764 -0.758156 0
-0.0693085 -0.703701 0
-0.13795 -0.693518 0
-0.0693085 -0.703701 0
-0.13795 -0.693518 0
-0.0757682 -0.631337 0
-0.150807 -0.622201 0
-0.0757682 -0.631337 0
-0.150807 -0.622201 0
-0.0814982 -0.552893 0
-0.162212 -0.544892 0
-0.0814982 -0.552893 0
-0.162212 -0.544892 0
-0.0864434 -0.469125 0
-0.172055 -0.462336 0
-0.0864434 -0.469125 0
-0.172055 -0.462336 0
-0.0905562 -0.380838 0
-0.18024 -0.375327 0
-0.0905562 -0.380838 0
-0.18024 -0.375327 0
-0.0937969 -0.288884 0
-0.18669 -0.284703 0
-0.0937969 -0.288884 0
-0.18669 -0.284703 0
-0.0961343 -0.194148 0
-0.191342 -0.191338 0
-0.0961343 -0.194148 0
-0.191342 -0.191338 0
-0.0975461 -0.0975431 0
-0.194152 -0.0961316 0
-0.0975461 -0.0975431 0
-0.194152 -0.0961316 0
-0.0980171 -1.21875e-16 0
-0.19509 -1.20112e-16 0
0.19509 0 0
0.290285 0 0
0.194149 -0.0961358 0
0.288885 -0.0937986 0
0.194149 -0.0961358 0
0.288885 -0.0937986 0
0.19134 -0.191345 0
0.284705 -0.186693 0
0.19134 -0.191345 0
0.284705 -0.186693 0
0.186689 -0.28471 0
0.277784 -0.277789 0
0.186689 -0.28471 0
0.277784 -0.277789 0
0.18024 -0.375333 0
0.268188 -0.366209 0
0.18024 -0.375333 0
0.268188 -0.366209 0
0.172055 -0.462342 0
0.256009 -0.451102 0
0.172055 -0.462342 0
0.256009 -0.451102 0
0.162212 -0.544898 0
0.241364 -0.531651 0
0.162212 -0.544898 0
0.241364 -0.531651 0
0.150808 -0.622206 0
0.224394 -0.60708 0
0.150808 -0.622206 0
0.224394 -0.60708 0
0.13795 -0.693523 0
0.205263 -0.676663 0
0.13795 -0.693523 0
0.205263 -0.676663 0
0.123765 -0.75816 0
0.184156 -0.739729 0
0.123765 -0.75816 0
0.184156 -0.739729 0
0.108387 -0.815496 0
0.161275 -0.79567 0
0.108387 -0.815496 0
0.161275 -0.79567 0
0.0919658 -0.864978 0
0.13684 -0.84395 0
0.0919658 -0.864978 0
0.13684 -0.84395 0
0.0746587 -0.90613 0
0.111088 -0.884101 0
0.0746587 -0.90613 0
0.111088 -0.884101 0
0.0566325 -0.938556 0
0.0842662 -0.915738 0
0.0566325 -0.938556 0
0.0842662 -0.915738 0
0.038061 -0.961942 0
0.0566326 -0.938556 0
0.038061 -0.961942 0
0.0566326 -0.938556 0
0.0191228 -0.976065 0
0.0284537 -0.952335 0
0.0191228 -0.976065 0
0.0284537 -0.952335 0
5.62126e-07 -0.980787 0
6.49318e-07 -0.956942 0
5.62126e-07 -0.980787 0
6.49318e-07 -0.956942 0
-0.0191217 -0.976064 0
-0.0284524 -0.952334 0
-0.0191217 -0.976064 0
-0.0284524 -0.952334 0
-0.0380598 -0.961941 0
-0.0566313 -0.938554 0
-0.0380598 -0.961941 0
-0.0566313 -0.938554 0
-0.0566314 -0.938554 0
-0.0842649 -0.915735 0
-0.0566314 -0.938554 0
-0.0842649 -0.915735 0
-0.0746576 -0.906128 0
-0.111087 -0.884098 0
-0.0746576 -0.906128 0
-0.111087 -0.884098 0
-0.0919648 -0.864975 0
-0.136839 -0.843945 0
-0.0919648 -0.864975 0
-0.136839 -0.843945 0
-0.108386 -0.815492 0
-0.161274 -0.795666 0
-0.108386 -0.815492 0
-0.161274 -0.795666 0
-0.123764 -0.758156 0
-0.184155 -0.739723 0
-0.123764 -0.758156 0
-0.184155 -0.739723 0
-0.13795 -0.693518 0
-0.205262 -0.676657 0
-0.13795 -0.693518 0
-0.205262 -0.676657 0
-0.150807 -0.622201 0
-0.224393 -0.607074 0
-0.150807 -0.622201 0
-0.224393 -0.607074 0
-0.162212 -0.544892 0
-0.241363 -0.531644 0
-0.162212 -0.544892 0
-0.241363 -0.531644 0
-0.172055 -0.462336 0
-0.256009 -0.451095 0
-0.172055 -0.462336 0
-0.256009 -0.451095 0
-0.18024 -0.375327 0
-0.268189 -0.366202 0
-0.18024 -0.375327 0
-0.268189 -0.366202 0
-0.18669 -0.284703 0
-0.277786 -0.277781 0
-0.18669 -0.284703 0
-0.277786 -0.277781 0
-0.191342 -0.191338 0
-0.284708 -0.186687 0
-0.191342 -0.191338 0
-0.284708 -0.186687 0
-0.194152 -0.0961316 0
-0.288887 -0.0937945 0
-0.194152 -0.0961316 0
-0.288887 -0.0937945 0
-0.19509 -1.20112e-16 0
-0.290285 -1.17191e-16 0
0.290285 0 0
0.382683 0 0
0.288885 -0.0937986 0
0.380839 -0.0905581 0
0.288885 -0.0937986 0
0.380839 -0.0905581 0
0.284705 -0.186693 0
0.375329 -0.180243 0
0.284705 -0.186693 0
0.375329 -0.180243 0
0.277784 -0.277789 0
0.366205 -0.268192 0
0.277784 -0.277789 0
0.366205 -0.268192 0
0.268188 -0.366209 0
0.353553 -0.353557 0
0.268188 -0.366209 0
0.353553 -0.353557 0
0.256009 -0.451102 0
0.337497 -0.435518 0
0.256009 -0.451102 0
0.337497 -0.435518 0
0.241364 -0.531651 0
0.318191 -0.513284 0
0.241364 -0.531651 0
0.318191 -0.513284 0
0.224394 -0.60708 0
0.29582 -0.586107 0
0.224394 -0.60708 0
0.29582 -0.586107 0
0.205263 -0.676663 0
0.2706 -0.653286 0
0.205263 -0.676663 0
0.2706 -0.653286 0
0.184156 -0.739729 0
0.242773 -0.714173 0
0.184156 -0.739729 0
0.242773 -0.714173 0
0.161275 -0.79567 0
0.212609 -0.768182 0
0.161275 -0.79567 0
0.212609 -0.768182 0
0.13684 -0.84395 0
0.180397 -0.814793 0
0.13684 -0.84395 0
0.180397 -0.814793 0
0.111088 -0.884101 0
0.146448 -0.853557 0
0.111088 -0.884101 0
0.146448 -0.853557 0
0.0842662 -0.915738 0
0.111088 -0.884101 0
0.0842662 -0.915738 0
0.111088 -0.884101 0
0.0566326 -0.938556 0
0.0746589 -0.90613 0
0.0566326 -0.938556 0
0.0746589 -0.90613 0
0.0284537 -0.952335 0
0.0375104 -0.919433 0
0.0284537 -0.952335 0
0.0375104 -0.919433 0
6.49318e-07 -0.956942 0
7.06157e-07 -0.923882 0
6.49318e-07 -0.956942 0
7.06157e-07 -0.923882 0
-0.0284524 -0.952334 0
-0.037509 -0.919432 0
-0.0284524 -0.952334 0
-0.037509 -0.919432 0
-0.0566313 -0.938554 0
-0.0746575 -0.906128 0
-0.0566313 -0.938554 0
-0.0746575 -0.906128 0
-0.0842649 -0.915735 0
-0.111087 -0.884098 0
-0.0842649 -0.915735 0
-0.111087 -0.884098 0
-0.111087 -0.884098 0
-0.146447 -0.853553 0
-0.111087 -0.884098 0
-0.146447 -0.853553 0
-0.136839 -0.843945 0
-0.180396 -0.814788 0
-0.136839 -0.843945 0
-0.180396 -0.814788 0
-0.161274 -0.795666 0
-0.212608 -0.768177 0
-0.161274 -0.795666 0
-0.212608 -0.768177 0
-0.184155 -0.739723 0
-0.242772 -0.714167 0
-0.184155 -0.739723 0
-0.242772 -0.714167 0
-0.205262 -0.676657 0
-0.270598 -0.653279 0
-0.205262 -0.676657 0
-0.270598 -0.653279 0
-0.224393 -0.607074 0
-0.295819 -0.5861 0
-0.224393 -0.607074 0
-0.295819 -0.5861 0
-0.241363 -0.531644 0
-0.31819 -0.513277 0
-0.241363 -0.531644 0
-0.31819 -0.513277 0
-0.256009 -0.451095 0
-0.337497 -0.43551 0
-0.256009 -0.451095 0
-0.337497 -0.43551 0
-0.268189 -0.366202 0
-0.353554 -0.35355 0
-0.268189 -0.366202 0
-0.353554 -0.35355 0
-0.277786 -0.277781 0
-0.366206 -0.268185 0
-0.277786 -0.277781 0
-0.366206 -0.268185 0
-0.284708 -0.186687 0
-0.375331 -0.180237 0
-0.284708 -0.186687 0
-0.375331 -0.180237 0
-0.288887 -0.0937945 0
-0.380841 -0.0905541 0
-0.288887 -0.0937945 0
-0.380841 -0.0905541 0
-0.290285 -1.17191e-16 0
-0.382683 -1.13143e-16 0
0.382683 0 0
0.471397 0 0
0.380839 -0.0905581 0
0.469126 -0.0864454 0
0.380839 -0.0905581 0
0.469126 -0.0864454 0
0.375329 -0.180243 0
0.462338 -0.172058 0
0.375329 -0.180243 0
0.462338 -0.172058 0
0.366205 -0.268192 0
0.451098 -0.256012 0
0.366205 -0.268192 0
0.451098 -0.256012 0
0.353553 -0.353557 0
0.435514 -0.337501 0
0.353553 -0.353557 0
0.435514 -0.337501 0
0.337497 -0.435518 0
0.415736 -0.415739 0
0.337497 -0.435518 0
0.415736 -0.415739 0
0.318191 -0.513284 0
0.391953 -0.489974 0
0.318191 -0.513284 0
0.391953 -0.489974 0
0.29582 -0.586107 0
0.364396 -0.55949 0
0.29582 -0.586107 0
0.364396 -0.55949 0
0.2706 -0.653286 0
0.33333 -0.623617 0
0.2706 -0.653286 0
0.33333 -0.623617 0
0.242773 -0.714173 0
0.299053 -0.681739 0
0.242773 -0.714173 0
0.299053 -0.681739 0
0.212609 -0.768182 0
0.261896 -0.733295 0
0.212609 -0.768182 0
0.261896 -0.733295 0
0.180397 -0.814793 0
0.222217 -0.777789 0
0.180397 -0.814793 0
0.222217 -0.777789 0
0.146448 -0.853557 0
0.180397 -0.814793 0
0.146448 -0.853557 0
0.180397 -0.814793 0
0.111088 -0.884101 0
0.136841 -0.843949 0
0.111088 -0.884101 0
0.136841 -0.843949 0
0.0746589 -0.90613 0
0.0919661 -0.864978 0
0.0746589 -0.90613 0
0.0919661 -0.864978 0
0.0375104 -0.919433 0
0.046206 -0.877677 0
0.0375104 -0.919433 0
0.046206 -0.877677 0
7.06157e-07 -0.923882 0
7.82659e-07 -0.881923 0
7.06157e-07 -0.923882 0
7.82659e-07 -0.881923 0
-0.037509 -0.919432 0
-0.0462044 -0.877676 0
-0.037509 -0.919432 0
-0.0462044 -0.877676 0
-0.0746575 -0.906128 0
-0.0919646 -0.864976 0
-0.0746575 -0.906128 0
-0.0919646 -0.864976 0
-0.111087 -0.884098 0
-0.136839 -0.843947 0
-0.111087 -0.884098 0
-0.136839 -0.843947 0
-0.146447 -0.853553 0
-0.180396 -0.814789 0
-0.146447 -0.853553 0
-0.180396 -0.814789 0
-0.180396 -0.814788 0
-0.222215 -0.777785 0
-0.180396 -0.814788 0
-0.222215 -0.777785 0
-0.212608 -0.768177 0
-0.261894 -0.73329 0
-0.212608 -0.768177 0
-0.261894 -0.73329 0
-0.242772 -0.714167 0
-0.299051 -0.681733 0
-0.242772 -0.714167 0
-0.299051 -0.681733 0
-0.270598 -0.653279 0
-0.333328 -0.62361 0
-0.270598 -0.653279 0
-0.333328 -0.62361 0
-0.295819 -0.5861 0
-0.364395 -0.559482 0
-0.295819 -0.5861 0
-0.364395 -0.559482 0
-0.31819 -0.513277 0
-0.391953 -0.489966 0
-0.31819 -0.513277 0
-0.391953 -0.489966 0
-0.337497 -0.43551 0
-0.415735 -0.415732 0
-0.337497 -0.43551 0
-0.415735 -0.415732 0
-0.353554 -0.35355 0
-0.435514 -0.337493 0
-0.353554 -0.35355 0
-0.435514 -0.337493 0
-0.366206 -0.268185 0
-0.451099 -0.256005 0
-0.366206 -0.268185 0
-0.451099 -0.256005 0
-0.375331 -0.180237 0
-0.462339 -0.172051 0
-0.375331 -0.180237 0
-0.462339 -0.172051 0
-0.380841 -0.0905541 0
-0.469127 -0.0864416 0
-0.380841 -0.0905541 0
-0.469127 -0.0864416 0
-0.382683 -1.13143e-16 0
-0.471397 -1.08004e-16 0
0.471397 0 0
0.55557 0 0
0.469126 -0.0864454 0
0.552894 -0.0815002 0
0.469126 -0.0864454 0
0.552894 -0.0815002 0
0.462338 -0.172058 0
0.544894 -0.162215 0
0.462338 -0.172058 0
0.544894 -0.162215 0
0.451098 -0.256012 0
0.531647 -0.241367 0
0.451098 -0.256012 0
0.531647 -0.241367 0
0.435514 -0.337501 0
0.513281 -0.318194 0
0.435514 -0.337501 0
0.513281 -0.318194 0
0.415736 -0.415739 0
0.48997 -0.391957 0
0.415736 -0.415739 0
0.48997 -0.391957 0
0.391953 -0.489974 0
0.461941 -0.461945 0
0.391953 -0.489974 0
0.461941 -0.461945 0
0.364396 -0.55949 0
0.429464 -0.527484 0
0.364396 -0.55949 0
0.429464 -0.527484 0
0.33333 -0.623617 0
0.39285 -0.587943 0
0.33333 -0.623617 0
0.39285 -0.587943 0
0.299053 -0.681739 0
0.352452 -0.642739 0
0.299053 -0.681739 0
0.352452 -0.642739 0
0.261896 -0.733295 0
0.30866 -0.691346 0
0.261896 -0.733295 0
0.30866 -0.691346 0
0.222217 -0.777789 0
0.261896 -0.733295 0
0.222217 -0.777789 0
0.261896 -0.733295 0
0.180397 -0.814793 0
0.212609 -0.768182 0
0.180397 -0.814793 0
0.212609 -0.768182 0
0.136841 -0.843949 0
0.161275 -0.79567 0
0.136841 -0.843949 0
0.161275 -0.79567 0
0.0919661 -0.864978 0
0.108388 -0.815496 0
0.0919661 -0.864978 0
0.108388 -0.815496 0
0.046206 -0.877677 0
0.0544565 -0.827468 0
0.046206 -0.877677 0
0.0544565 -0.827468 0
7.82659e-07 -0.881923 0
9.01778e-07 -0.831472 0
7.82659e-07 -0.881923 0
9.01778e-07 -0.831472 0
-0.0462044 -0.877676 0
-0.0544547 -0.827468 0
-0.0462044 -0.877676 0
-0.0544547 -0.827468 0
-0.0919646 -0.864976 0
-0.108386 -0.815494 0
-0.0919646 -0.864976 0
-0.108386 -0.815494 0
-0.136839 -0.843947 0
-0.161273 -0.795667 0
-0.136839 -0.843947 0
-0.161273 -0.795667 0
-0.180396 -0.814789 0
-0.212607 -0.768178 0
-0.180396 -0.814789 0
-0.212607 -0.768178 0
-0.222215 -0.777785 0
-0.261894 -0.73329 0
-0.222215 -0.777785 0
-0.261894 -0.73329 0
-0.261894 -0.73329 0
-0.308659 -0.691341 0
-0.261894 -0.73329 0
-0.308659 -0.691341 0
-0.299051 -0.681733 0
-0.35245 -0.642733 0
-0.299051 -0.681733 0
-0.35245 -0.642733 0
-0.333328 -0.62361 0
-0.392848 -0.587936 0
-0.333328 -0.62361 0
-0.392848 -0.587936 0
-0.364395 -0.559482 0
-0.429462 -0.527476 0
-0.364395 -0.559482 0
-0.429462 -0.527476 0
-0.391953 -0.489966 0
-0.46194 -0.461937 0
-0.391953 -0.489966 0
-0.46194 -0.461937 0
-0.415735 -0.415732 0
-0.48997 -0.391949 0
-0.415735 -0.415732 0
-0.48997 -0.391949 0
-0.435514 -0.337493 0
-0.513281 -0.318187 0
-0.435514 -0.337493 0
-0.513281 -0.318187 0
-0.451099 -0.256005 0
-0.531648 -0.24136 0
-0.451099 -0.256005 0
-0.531648 -0.24136 0
-0.462339 -0.172051 0
-0.544895 -0.162209 0
-0.462339 -0.172051 0
-0.544895 -0.162209 0
-0.469127 -0.0864416 0
-0.552895 -0.0814965 0
-0.469127 -0.0864416 0
-0.552895 -0.0814965 0
-0.471397 -1.08004e-16 0
-0.55557 -1.01826e-16 0
0.55557 0 0
0.634393 0 0
0.552894 -0.0815002 0
0.631338 -0.0757701 0
0.552894 -0.0815002 0
0.631338 -0.0757701 0
0.544894 -0.162215 0
0.622203 -0.15081 0
0.544894 -0.162215 0
0.622203 -0.15081 0
0.531647 -0.241367 0
0.607077 -0.224397 0
0.531647 -0.241367 0
0.607077 -0.224397 0
0.513281 -0.318194 0
0.586104 -0.295823 0
0.513281 -0.318194 0
0.586104 -0.295823 0
0.48997 -0.391957 0
0.559486 -0.364399 0
0.48997 -0.391957 0
0.559486 -0.364399 0
0.461941 -0.461945 0
0.527481 -0.429466 0
0.461941 -0.461945 0
0.527481 -0.429466 0
0.429464 -0.527484 0
0.490395 -0.490397 0
0.429464 -0.527484 0
0.490395 -0.490397 0
0.39285 -0.587943 0
0.448586 -0.546606 0
0.39285 -0.587943 0
0.448586 -0.546606 0
0.352452 -0.642739 0
0.402457 -0.59755 0
0.352452 -0.642739 0
0.402457 -0.59755 0
0.30866 -0.691346 0
0.352452 -0.642739 0
0.30866 -0.691346 0
0.352452 -0.642739 0
0.261896 -0.733295 0
0.299053 -0.681738 0
0.261896 -0.733295 0
0.299053 -0.681738 0
0.212609 -0.768182 0
0.242774 -0.714172 0
0.212609 -0.768182 0
0.242774 -0.714172 0
0.161275 -0.79567 0
0.184156 -0.739728 0
0.161275 -0.79567 0
0.184156 -0.739728 0
0.108388 -0.815496 0
0.123766 -0.75816 0
0.108388 -0.815496 0
0.123766 -0.75816 0
0.0544565 -0.827468 0
0.0621827 -0.769291 0
0.0544565 -0.827468 0
0.0621827 -0.769291 0
9.01778e-07 -0.831472 0
1.07017e-06 -0.773013 0
9.01778e-07 -0.831472 0
1.07017e-06 -0.773013 0
-0.0544547 -0.827468 0
-0.0621806 -0.76929 0
-0.0544547 -0.827468 0
-0.0621806 -0.76929 0
-0.108386 -0.815494 0
-0.123763 -0.758158 0
-0.108386 -0.815494 0
-0.123763 -0.758158 0
-0.161273 -0.795667 0
-0.184154 -0.739726 0
-0.161273 -0.795667 0
-0.184154 -0.739726 0
-0.212607 -0.768178 0
-0.242772 -0.714169 0
-0.212607 -0.768178 0
-0.242772 -0.714169 0
-0.261894 -0.73329 0
-0.299051 -0.681734 0
-0.261894 -0.73329 0
-0.299051 -0.681734 0
-0.308659 -0.691341 0
-0.35245 -0.642734 0
-0.308659 -0.691341 0
-0.35245 -0.642734 0
-0.35245 -0.642733 0
-0.402455 -0.597544 0
-0.35245 -0.642733 0
-0.402455 -0.597544 0
-0.392848 -0.587936 0
-0.448584 -0.546599 0
-0.392848 -0.587936 0
-0.448584 -0.546599 0
-0.429462 -0.527476 0
-0.490393 -0.490391 0
-0.429462 -0.527476 0
-0.490393 -0.490391 0
-0.46194 -0.461937 0
-0.527479 -0.429459 0
-0.46194 -0.461937 0
-0.527479 -0.429459 0
-0.48997 -0.391949 0
-0.559486 -0.364392 0
-0.48997 -0.391949 0
-0.559486 -0.364392 0
-0.513281 -0.318187 0
-0.586104 -0.295815 0
-0.513281 -0.318187 0
-0.586104 -0.295815 0
-0.531648 -0.24136 0
-0.607077 -0.22439 0
-0.531648 -0.24136 0
-0.607077 -0.22439 0
-0.544895 -0.162209 0
-0.622204 -0.150804 0
-0.544895 -0.162209 0
-0.622204 -0.150804 0
-0.552895 -0.0814965 0
-0.631339 -0.0757666 0
-0.552895 -0.0814965 0
-0.631339 -0.0757666 0
-0.55557 -1.01826e-16 0
-0.634393 -9.46665e-17 0
0.634393 0 0
0.707107 0 0
0.631338 -0.0757701 0
0.703702 -0.0693103 0
0.631338 -0.0757701 0
0.703702 -0.0693103 0
0.622203 -0.15081 0
0.69352 -0.137953 0
0.622203 -0.15081 0
0.69352 -0.137953 0
0.607077 -0.224397 0
0.67666 -0.205266 0
0.607077 -0.224397 0
0.67666 -0.205266 0
0.586104 -0.295823 0
0.653283 -0.270602 0
0.586104 -0.295823 0
0.653283 -0.270602 0
0.559486 -0.364399 0
0.623614 -0.333332 0
0.559486 -0.364399 0
0.623614 -0.333332 0
0.527481 -0.429466 0
0.58794 -0.392852 0
0.527481 -0.429466 0
0.58794 -0.392852 0
0.490395 -0.490397 0
0.546604 -0.448589 0
0.490395 -0.490397 0
0.546604 -0.448589 0
0.448586 -0.546606 0
0.500003 -0.500005 0
0.448586 -0.546606 0
0.500003 -0.500005 0
0.402457 -0.59755 0
0.448586 -0.546605 0
0.402457 -0.59755 0
0.448586 -0.546605 0
0.352452 -0.642739 0
0.39285 -0.587942 0
0.352452 -0.642739 0
0.39285 -0.587942 0
0.299053 -0.681738 0
0.33333 -0.623617 0
0.299053 -0.681738 0
0.33333 -0.623617 0
0.242774 -0.714172 0
0.2706 -0.653285 0
0.242774 -0.714172 0
0.2706 -0.653285 0
0.184156 -0.739728 0
0.205264 -0.676662 0
0.184156 -0.739728 0
0.205264 -0.676662 0
0.123766 -0.75816 0