# vtk DataFile Version 3.0
#This file was generated by the deal.II library on 2026/5/26 at 18:57:59
ASCII
DATASET UNSTRUCTURED_GRID

POINTS 16384 double
0 0 0
0.015625 0 0
0 0.015625 0
0.015625 0.015625 0
0.015625 0 0
0.03125 0 0
0.015625 0.015625 0
0.03125 0.015625 0
0 0.015625 0
0.015625 0.015625 0
0 0.03125 0
0.015625 0.03125 0
0.015625 0.015625 0
0.03125 0.015625 0
0.015625 0.03125 0
0.03125 0.03125 0
0 0.03125 0
0.015625 0.03125 0
0 0.046875 0
0.015625 0.046875 0
0.015625 0.03125 0
0.03125 0.03125 0
0.015625 0.046875 0
0.03125 0.046875 0
0 0.046875 0
0.015625 0.046875 0
0 0.0625 0
0.015625 0.0625 0
0.015625 0.046875 0
0.03125 0.046875 0
0.015625 0.0625 0
0.03125 0.0625 0
0 0.0625 0
0.015625 0.0625 0
0 0.078125 0
0.015625 0.078125 0
0.015625 0.0625 0
0.03125 0.0625 0
0.015625 0.078125 0
0.03125 0.078125 0
0 0.078125 0
0.015625 0.078125 0
0 0.09375 0
0.015625 0.09375 0
0.015625 0.078125 0
0.03125 0.078125 0
0.015625 0.09375 0
0.03125 0.09375 0
0 0.09375 0
0.015625 0.09375 0
0 0.109375 0
0.015625 0.109375 0
0.015625 0.09375 0
0.03125 0.09375 0
0.015625 0.109375 0
0.03125 0.109375 0
0 0.109375 0
0.015625 0.109375 0
0 0.125 0
0.015625 0.125 0
0.015625 0.109375 0
0.03125 0.109375 0
0.015625 0.125 0
0.03125 0.125 0
0 0.125 0
0.015625 0.125 0
0 0.140625 0
0.015625 0.140625 0
0.015625 0.125 0
0.03125 0.125 0
0.015625 0.140625 0
0.03125 0.140625 0
0 0.140625 0
0.015625 0.140625 0
0 0.15625 0
0.015625 0.15625 0
0.015625 0.140625 0
0.03125 0.140625 0
0.015625 0.15625 0
0.03125 0.15625 0
0 0.15625 0
0.015625 0.15625 0
0 0.171875 0
0.015625 0.171875 0
0.015625 0.15625 0
0.03125 0.15625 0
0.015625 0.171875 0
0.03125 0.171875 0
0 0.171875 0
0.015625 0.171875 0
0 0.1875 0
0.015625 0.1875 0
0.015625 0.171875 0
0.03125 0.171875 0
0.015625 0.1875 0
0.03125 0.1875 0
0 0.1875 0
0.015625 0.1875 0
0 0.203125 0
0.015625 0.203125 0
0.015625 0.1875 0
0.03125 0.1875 0
0.015625 0.203125 0
0.03125 0.203125 0
0 0.203125 0
0.015625 0.203125 0
0 0.21875 0
0.015625 0.21875 0
0.015625 0.203125 0
0.03125 0.203125 0
0.015625 0.21875 0
0.03125 0.21875 0
0 0.21875 0
0.015625 0.21875 0
0 0.234375 0
0.015625 0.234375 0
0.015625 0.21875 0
0.03125 0.21875 0
0.015625 0.234375 0
0.03125 0.234375 0
0 0.234375 0
0.015625 0.234375 0
0 0.25 0
0.015625 0.25 0
0.015625 0.234375 0
0.03125 0.234375 0
0.015625 0.25 0
0.03125 0.25 0
0 0.25 0
0.015625 0.25 0
0 0.265625 0
0.015625 0.265625 0
0.015625 0.25 0
0.03125 0.25 0
0.015625 0.265625 0
0.03125 0.265625 0
0 0.265625 0
0.015625 0.265625 0
0 0.28125 0
0.015625 0.28125 0
0.015625 0.265625 0
0.03125 0.265625 0
0.015625 0.28125 0
0.03125 0.28125 0
0 0.28125 0
0.015625 0.28125 0
0 0.296875 0
0.015625 0.296875 0
0.015625 0.28125 0
0.03125 0.28125 0
0.015625 0.296875 0
0.03125 0.296875 0
0 0.296875 0
0.015625 0.296875 0
0 0.3125 0
0.015625 0.3125 0
0.015625 0.296875 0
0.03125 0.296875 0
0.015625 0.3125 0
0.03125 0.3125 0
0 0.3125 0
0.015625 0.3125 0
0 0.328125 0
0.015625 0.328125 0
0.015625 0.3125 0
0.03125 0.3125 0
0.015625 0.328125 0
0.03125 0.328125 0
0 0.328125 0
0.015625 0.328125 0
0 0.34375 0
0.015625 0.34375 0
0.015625 0.328125 0
0.03125 0.328125 0
0.015625 0.34375 0
0.03125 0.34375 0
0 0.34375 0
0.015625 0.34375 0
0 0.359375 0
0.015625 0.359375 0
0.015625 0.34375 0
0.03125 0.34375 0
0.015625 0.359375 0
0.03125 0.359375 0
0 0.359375 0
0.015625 0.359375 0
0 0.375 0
0.015625 0.375 0
0.015625 0.359375 0
0.03125 0.359375 0
0.015625 0.375 0
0.03125 0.375 0
0 0.375 0
0.015625 0.375 0
0 0.390625 0
0.015625 0.390625 0
0.015625 0.375 0
0.03125 0.375 0
0.015625 0.390625 0
0.03125 0.390625 0
0 0.390625 0
0.015625 0.390625 0
0 0.40625 0
0.015625 0.40625 0
0.015625 0.390625 0
0.03125 0.390625 0
0.015625 0.40625 0
0.03125 0.40625 0
0 0.40625 0
0.015625 0.40625 0
0 0.421875 0
0.015625 0.421875 0
0.015625 0.40625 0
0.03125 0.40625 0
0.015625 0.421875 0
0.03125 0.421875 0
0 0.421875 0
0.015625 0.421875 0
0 0.4375 0
0.015625 0.4375 0
0.015625 0.421875 0
0.03125 0.421875 0
0.015625 0.4375 0
0.03125 0.4375 0
0 0.4375 0
0.015625 0.4375 0
0 0.453125 0
0.015625 0.453125 0
0.015625 0.4375 0
0.03125 0.4375 0
0.015625 0.453125 0
0.03125 0.453125 0
0 0.453125 0
0.015625 0.453125 0
0 0.46875 0
0.015625 0.46875 0
0.015625 0.453125 0
0.03125 0.453125 0
0.015625 0.46875 0
0.03125 0.46875 0
0 0.46875 0
0.015625 0.46875 0
0 0.484375 0
0.015625 0.484375 0
0.015625 0.46875 0
0.03125 0.46875 0
0.015625 0.484375 0
0.03125 0.484375 0
0 0.484375 0
0.015625 0.484375 0
0 0.5 0
0.015625 0.5 0
0.015625 0.484375 0
0.03125 0.484375 0
0.015625 0.5 0
0.03125 0.5 0
0 0.5 0
0.015625 0.5 0
0 0.515625 0
0.015625 0.515625 0
0.015625 0.5 0
0.03125 0.5 0
0.015625 0.515625 0
0.03125 0.515625 0
0 0.515625 0
0.015625 0.515625 0
0 0.53125 0
0.015625 0.53125 0
0.015625 0.515625 0
0.03125 0.515625 0
0.015625 0.53125 0
0.03125 0.53125 0
0 0.53125 0
0.015625 0.53125 0
0 0.546875 0
0.015625 0.546875 0
0.015625 0.53125 0
0.03125 0.53125 0
0.015625 0.546875 0
0.03125 0.546875 0
0 0.546875 0
0.015625 0.546875 0
0 0.5625 0
0.015625 0.5625 0
0.015625 0.546875 0
0.03125 0.546875 0
0.015625 0.5625 0
0.03125 0.5625 0
0 0.5625 0
0.015625 0.5625 0
0 0.578125 0
0.015625 0.578125 0
0.015625 0.5625 0
0.03125 0.5625 0
0.015625 0.578125 0
0.03125 0.578125 0
0 0.578125 0
0.015625 0.578125 0
0 0.59375 0
0.015625 0.59375 0
0.015625 0.578125 0
0.03125 0.578125 0
0.015625 0.59375 0
0.03125 0.59375 0
0 0.59375 0
0.015625 0.59375 0
0 0.609375 0
0.015625 0.609375 0
0.015625 0.59375 0
0.03125 0.59375 0
0.015625 0.609375 0
0.03125 0.609375 0
0 0.609375 0
0.015625 0.609375 0
0 0.625 0
0.015625 0.625 0
0.015625 0.609375 0
0.03125 0.609375 0
0.015625 0.625 0
0.03125 0.625 0
0 0.625 0
0.015625 0.625 0
0 0.640625 0
0.015625 0.640625 0
0.015625 0.625 0
0.03125 0.625 0
0.015625 0.640625 0
0.03125 0.640625 0
0 0.640625 0
0.015625 0.640625 0
0 0.65625 0
0.015625 0.65625 0
0.015625 0.640625 0
0.03125 0.640625 0
0.015625 0.65625 0
0.03125 0.65625 0
0 0.65625 0
0.015625 0.65625 0
0 0.671875 0
0.015625 0.671875 0
0.015625 0.65625 0
0.03125 0.65625 0
0.015625 0.671875 0
0.03125 0.671875 0
0 0.671875 0
0.015625 0.671875 0
0 0.6875 0
0.015625 0.6875 0
0.015625 0.671875 0
0.03125 0.671875 0
0.015625 0.6875 0
0.03125 0.6875 0
0 0.6875 0
0.015625 0.6875 0
0 0.703125 0
0.015625 0.703125 0
0.015625 0.6875 0
0.03125 0.6875 0
0.015625 0.703125 0
0.03125 0.703125 0
0 0.703125 0
0.015625 0.703125 0
0 0.71875 0
0.015625 0.71875 0
0.015625 0.703125 0
0.03125 0.703125 0
0.015625 0.71875 0
0.03125 0.71875 0
0 0.71875 0
0.015625 0.71875 0
0 0.734375 0
0.015625 0.734375 0
0.015625 0.71875 0
0.03125 0.71875 0
0.015625 0.734375 0
0.03125 0.734375 0
0 0.734375 0
0.015625 0.734375 0
0 0.75 0
0.015625 0.75 0
0.015625 0.734375 0
0.03125 0.734375 0
0.015625 0.75 0
0.03125 0.75 0
0 0.75 0
0.015625 0.75 0
0 0.765625 0
0.015625 0.765625 0
0.015625 0.75 0
0.03125 0.75 0
0.015625 0.765625 0
0.03125 0.765625 0
0 0.765625 0
0.015625 0.765625 0
0 0.78125 0
0.015625 0.78125 0
0.015625 0.765625 0
0.03125 0.765625 0
0.015625 0.78125 0
0.03125 0.78125 0
0 0.78125 0
0.015625 0.78125 0
0 0.796875 0
0.015625 0.796875 0
0.015625 0.78125 0
0.03125 0.78125 0
0.015625 0.796875 0
0.03125 0.796875 0
0 0.796875 0
0.015625 0.796875 0
0 0.8125 0
0.015625 0.8125 0
0.015625 0.796875 0
0.03125 0.796875 0
0.015625 0.8125 0
0.03125 0.8125 0
0 0.8125 0
0.015625 0.8125 0
0 0.828125 0
0.015625 0.828125 0
0.015625 0.8125 0
0.03125 0.8125 0
0.015625 0.828125 0
0.03125 0.828125 0
0 0.828125 0
0.015625 0.828125 0
0 0.84375 0
0.015625 0.84375 0
0.015625 0.828125 0
0.03125 0.828125 0
0.015625 0.84375 0
0.03125 0.84375 0
0 0.84375 0
0.015625 0.84375 0
0 0.859375 0
0.015625 0.859375 0
0.015625 0.84375 0
0.03125 0.84375 0
0.015625 0.859375 0
0.03125 0.859375 0
0 0.859375 0
0.015625 0.859375 0
0 0.875 0
0.015625 0.875 0
0.015625 0.859375 0
0.03125 0.859375 0
0.015625 0.875 0
0.03125 0.875 0
0 0.875 0
0.015625 0.875 0
0 0.890625 0
0.015625 0.890625 0
0.015625 0.875 0
0.03125 0.875 0
0.015625 0.890625 0
0.03125 0.890625 0
0 0.890625 0
0.015625 0.890625 0
0 0.90625 0
0.015625 0.90625 0
0.015625 0.890625 0
0.03125 0.890625 0
0.015625 0.90625 0
0.03125 0.90625 0
0 0.90625 0
0.015625 0.90625 0
0 0.921875 0
0.015625 0.921875 0
0.015625 0.90625 0
0.03125 0.90625 0
0.015625 0.921875 0
0.03125 0.921875 0
0 0.921875 0
0.015625 0.921875 0
0 0.9375 0
0.015625 0.9375 0
0.015625 0.921875 0
0.03125 0.921875 0
0.015625 0.9375 0
0.03125 0.9375 0
0 0.9375 0
0.015625 0.9375 0
0 0.953125 0
0.015625 0.953125 0
0.015625 0.9375 0
0.03125 0.9375 0
0.015625 0.953125 0
0.03125 0.953125 0
0 0.953125 0
0.015625 0.953125 0
0 0.96875 0
0.015625 0.96875 0
0.015625 0.953125 0
0.03125 0.953125 0
0.015625 0.96875 0
0.03125 0.96875 0
0 0.96875 0
0.015625 0.96875 0
0 0.984375 0
0.015625 0.984375 0
0.015625 0.96875 0
0.03125 0.96875 0
0.015625 0.984375 0
0.03125 0.984375 0
0 0.984375 0
0.015625 0.984375 0
0 1 0
0.015625 1 0
0.015625 0.984375 0
0.03125 0.984375 0
0.015625 1 0
0.03125 1 0
0.03125 0 0
0.046875 0 0
0.03125 0.015625 0
0.046875 0.015625 0
0.046875 0 0
0.0625 0 0
0.046875 0.015625 0
0.0625 0.015625 0
0.03125 0.015625 0
0.046875 0.015625 0
0.03125 0.03125 0
0.046875 0.03125 0
0.046875 0.015625 0
0.0625 0.015625 0
0.046875 0.03125 0
0.0625 0.03125 0
0.03125 0.03125 0
0.046875 0.03125 0
0.03125 0.046875 0
0.046875 0.046875 0
0.046875 0.03125 0
0.0625 0.03125 0
0.046875 0.046875 0
0.0625 0.046875 0
0.03125 0.046875 0
0.046875 0.046875 0
0.03125 0.0625 0
0.046875 0.0625 0
0.046875 0.046875 0
0.0625 0.046875 0
0.046875 0.0625 0
0.0625 0.0625 0
0.03125 0.0625 0
0.046875 0.0625 0
0.03125 0.078125 0
0.046875 0.078125 0
0.046875 0.0625 0
0.0625 0.0625 0
0.046875 0.078125 0
0.0625 0.078125 0
0.03125 0.078125 0
0.046875 0.078125 0
0.03125 0.09375 0
0.046875 0.09375 0
0.046875 0.078125 0
0.0625 0.078125 0
0.046875 0.09375 0
0.0625 0.09375 0
0.03125 0.09375 0
0.046875 0.09375 0
0.03125 0.109375 0
0.046875 0.109375 0
0.046875 0.09375 0
0.0625 0.09375 0
0.046875 0.109375 0
0.0625 0.109375 0
0.03125 0.109375 0
0.046875 0.109375 0
0.03125 0.125 0
0.046875 0.125 0
0.046875 0.109375 0
0.0625 0.109375 0
[...]
POINT_DATA 16384
VECTORS velocity double
0 0 0
0.0490677 0 0
0 -0.0490677 0
0.0490084 -0.0490087 0
0.0490677 0 0
0.0980171 0 0
0.0490084 -0.0490087 0
0.0978989 -0.0488316 0
0 -0.0490677 0
0.0490084 -0.0490087 0
0 -0.0980171 0
0.0488314 -0.0978992 0
0.0490084 -0.0490087 0
0.0978989 -0.0488316 0
0.0488314 -0.0978992 0
0.097545 -0.0975454 0
0 -0.0980171 0
0.0488314 -0.0978992 0
0 -0.14673 0
0.0485364 -0.146554 0
0.0488314 -0.0978992 0
0.097545 -0.0975454 0
0.0485364 -0.146554 0
0.0969562 -0.146024 0
0 -0.14673 0
0.0485364 -0.146554 0
0 -0.19509 0
0.0481249 -0.194855 0
0.0485364 -0.146554 0
0.0969562 -0.146024 0
0.0481249 -0.194855 0
0.0961337 -0.194151 0
0 -0.19509 0
0.0481249 -0.194855 0
0 -0.24298 0
0.047597 -0.242688 0
0.0481249 -0.194855 0
0.0961337 -0.194151 0
0.047597 -0.242688 0
0.0950796 -0.24181 0
0 -0.24298 0
0.047597 -0.242688 0
0 -0.290285 0
0.0469549 -0.289935 0
0.047597 -0.242688 0
0.0950796 -0.24181 0
0.0469549 -0.289935 0
0.0937965 -0.288887 0
0 -0.290285 0
0.0469549 -0.289935 0
0 -0.33689 0
0.0461992 -0.336484 0
0.0469549 -0.289935 0
0.0937965 -0.288887 0
0.0461992 -0.336484 0
0.0922874 -0.335268 0
0 -0.33689 0
0.0461992 -0.336484 0
0 -0.382683 0
0.0453327 -0.382223 0
0.0461992 -0.336484 0
0.0922874 -0.335268 0
0.0453327 -0.382223 0
0.090556 -0.380841 0
0 -0.382683 0
0.0453327 -0.382223 0
0 -0.427555 0
0.0443565 -0.42704 0
0.0453327 -0.382223 0
0.090556 -0.380841 0
0.0443565 -0.42704 0
0.0886064 -0.425496 0
0 -0.427555 0
0.0443565 -0.42704 0
0 -0.471397 0
0.0432739 -0.470829 0
0.0443565 -0.42704 0
0.0886064 -0.425496 0
0.0432739 -0.470829 0
0.0864433 -0.469127 0
0 -0.471397 0
0.0432739 -0.470829 0
0 -0.514103 0
0.0420866 -0.513484 0
0.0432739 -0.470829 0
0.0864433 -0.469127 0
0.0420866 -0.513484 0
0.0840721 -0.511627 0
0 -0.514103 0
0.0420866 -0.513484 0
0 -0.55557 0
0.0407984 -0.554901 0
0.0420866 -0.513484 0
0.0840721 -0.511627 0
0.0407984 -0.554901 0
0.0814982 -0.552895 0
0 -0.55557 0
0.0407984 -0.554901 0
0 -0.595699 0
0.0394114 -0.594982 0
0.0407984 -0.554901 0
0.0814982 -0.552895 0
0.0394114 -0.594982 0
0.0787281 -0.592831 0
0 -0.595699 0
0.0394114 -0.594982 0
0 -0.634393 0
0.0379299 -0.633629 0
0.0394114 -0.594982 0
0.0787281 -0.592831 0
0.0379299 -0.633629 0
0.0757682 -0.631339 0
0 -0.634393 0
0.0379299 -0.633629 0
0 -0.671559 0
0.0363566 -0.67075 0
0.0379299 -0.633629 0
0.0757682 -0.631339 0
0.0363566 -0.67075 0
0.0726259 -0.668325 0
0 -0.671559 0
0.0363566 -0.67075 0
0 -0.707107 0
0.0346962 -0.706255 0
0.0363566 -0.67075 0
0.0726259 -0.668325 0
0.0346962 -0.706255 0
0.0693085 -0.703702 0
0 -0.707107 0
0.0346962 -0.706255 0
0 -0.740951 0
0.0329517 -0.740059 0
0.0346962 -0.706255 0
0.0693085 -0.703702 0
0.0329517 -0.740059 0
0.0658243 -0.737383 0
0 -0.740951 0
0.0329517 -0.740059 0
0 -0.77301 0
0.0311283 -0.772079 0
0.0329517 -0.740059 0
0.0658243 -0.737383 0
0.0311283 -0.772079 0
0.0621814 -0.769288 0
0 -0.77301 0
0.0311283 -0.772079 0
0 -0.803208 0
0.0292295 -0.80224 0
0.0311283 -0.772079 0
0.0621814 -0.769288 0
0.0292295 -0.80224 0
0.0583887 -0.79934 0
0 -0.803208 0
0.0292295 -0.80224 0
0 -0.83147 0
0.0272606 -0.830468 0
0.0292295 -0.80224 0
0.0583887 -0.79934 0
0.0272606 -0.830468 0
0.0544554 -0.827466 0
0 -0.83147 0
0.0272606 -0.830468 0
0 -0.857729 0
0.0252257 -0.856695 0
0.0272606 -0.830468 0
0.0544554 -0.827466 0
0.0252257 -0.856695 0
0.0503909 -0.853598 0
0 -0.857729 0
0.0252257 -0.856695 0
0 -0.881921 0
0.0231304 -0.880859 0
0.0252257 -0.856695 0
0.0503909 -0.853598 0
0.0231304 -0.880859 0
0.0462049 -0.877675 0
0 -0.881921 0
0.0231304 -0.880859 0
0 -0.903989 0
0.020979 -0.9029 0
0.0231304 -0.880859 0
0.0462049 -0.877675 0
0.020979 -0.9029 0
0.0419077 -0.899636 0
0 -0.903989 0
0.020979 -0.9029 0
0 -0.92388 0
0.0187775 -0.922767 0
0.020979 -0.9029 0
0.0419077 -0.899636 0
0.0187775 -0.922767 0
0.0375095 -0.919431 0
0 -0.92388 0
0.0187775 -0.922767 0
0 -0.941544 0
0.0165303 -0.94041 0
0.0187775 -0.922767 0
0.0375095 -0.919431 0
0.0165303 -0.94041 0
0.033021 -0.93701 0
0 -0.941544 0
0.0165303 -0.94041 0
0 -0.95694 0
0.0142437 -0.955788 0
0.0165303 -0.94041 0
0.033021 -0.93701 0
0.0142437 -0.955788 0
0.0284528 -0.952332 0
0 -0.95694 0
0.0142437 -0.955788 0
0 -0.970031 0
0.0119224 -0.968863 0
0.0142437 -0.955788 0
0.0284528 -0.952332 0
0.0119224 -0.968863 0
0.0238162 -0.96536 0
0 -0.970031 0
0.0119224 -0.968863 0
0 -0.980785 0
0.0095727 -0.979604 0
0.0119224 -0.968863 0
0.0238162 -0.96536 0
0.0095727 -0.979604 0
0.0191222 -0.976062 0
0 -0.980785 0
0.0095727 -0.979604 0
0 -0.989177 0
0.00719965 -0.987985 0
0.0095727 -0.979604 0
0.0191222 -0.976062 0
0.00719965 -0.987985 0
0.0143821 -0.984413 0
0 -0.989177 0
0.00719965 -0.987985 0
0 -0.995185 0
0.00480954 -0.993986 0
0.00719965 -0.987985 0
0.0143821 -0.984413 0
0.00480954 -0.993986 0
0.00960733 -0.990392 0
0 -0.995185 0
0.00480954 -0.993986 0
0 -0.998795 0
0.00240758 -0.997592 0
0.00480954 -0.993986 0
0.00960733 -0.990392 0
0.00240758 -0.997592 0
0.00480947 -0.993986 0
0 -0.998795 0
0.00240758 -0.997592 0
0 -1 0
5.7066e-08 -0.998795 0
0.00240758 -0.997592 0
0.00480947 -0.993986 0
5.7066e-08 -0.998795 0
-1.73252e-08 -0.995184 0
0 -1 0
5.7066e-08 -0.998795 0
0 -0.998795 0
-0.00240768 -0.997592 0
5.7066e-08 -0.998795 0
-1.73252e-08 -0.995184 0
-0.00240768 -0.997592 0
-0.00480947 -0.993986 0
0 -0.998795 0
-0.00240768 -0.997592 0
0 -0.995185 0
-0.00480942 -0.993986 0
-0.00240768 -0.997592 0
-0.00480947 -0.993986 0
-0.00480942 -0.993986 0
-0.00960737 -0.990392 0
0 -0.995185 0
-0.00480942 -0.993986 0
0 -0.989177 0
-0.00719976 -0.987985 0
-0.00480942 -0.993986 0
-0.00960737 -0.990392 0
-0.00719976 -0.987985 0
-0.0143821 -0.984413 0
0 -0.989177 0
-0.00719976 -0.987985 0
0 -0.980785 0
-0.00957259 -0.979604 0
-0.00719976 -0.987985 0
-0.0143821 -0.984413 0
-0.00957259 -0.979604 0
-0.0191222 -0.976062 0
0 -0.980785 0
-0.00957259 -0.979604 0
0 -0.970031 0
-0.0119225 -0.968863 0
-0.00957259 -0.979604 0
-0.0191222 -0.976062 0
-0.0119225 -0.968863 0
-0.0238162 -0.96536 0
0 -0.970031 0
-0.0119225 -0.968863 0
0 -0.95694 0
-0.0142436 -0.955787 0
-0.0119225 -0.968863 0
-0.0238162 -0.96536 0
-0.0142436 -0.955787 0
-0.0284529 -0.952332 0
0 -0.95694 0
-0.0142436 -0.955787 0
0 -0.941544 0
-0.0165304 -0.94041 0
-0.0142436 -0.955787 0
-0.0284529 -0.952332 0
-0.0165304 -0.94041 0
-0.033021 -0.93701 0
0 -0.941544 0
-0.0165304 -0.94041 0
0 -0.92388 0
-0.0187774 -0.922767 0
-0.0165304 -0.94041 0
-0.033021 -0.93701 0
-0.0187774 -0.922767 0
-0.0375095 -0.91943 0
0 -0.92388 0
-0.0187774 -0.922767 0
0 -0.903989 0
-0.0209791 -0.9029 0
-0.0187774 -0.922767 0
-0.0375095 -0.91943 0
-0.0209791 -0.9029 0
-0.0419077 -0.899636 0
0 -0.903989 0
-0.0209791 -0.9029 0
0 -0.881921 0
-0.0231303 -0.880859 0
-0.0209791 -0.9029 0
-0.0419077 -0.899636 0
-0.0231303 -0.880859 0
-0.0462049 -0.877674 0
0 -0.881921 0
-0.0231303 -0.880859 0
0 -0.857729 0
-0.0252258 -0.856695 0
-0.0231303 -0.880859 0
-0.0462049 -0.877674 0
-0.0252258 -0.856695 0
-0.0503909 -0.853598 0
0 -0.857729 0
-0.0252258 -0.856695 0
0 -0.83147 0
-0.0272605 -0.830468 0
-0.0252258 -0.856695 0
-0.0503909 -0.853598 0
-0.0272605 -0.830468 0
-0.0544554 -0.827466 0
0 -0.83147 0
-0.0272605 -0.830468 0
0 -0.803208 0
-0.0292296 -0.80224 0
-0.0272605 -0.830468 0
-0.0544554 -0.827466 0
-0.0292296 -0.80224 0
-0.0583887 -0.79934 0
0 -0.803208 0
-0.0292296 -0.80224 0
0 -0.77301 0
-0.0311282 -0.772079 0
-0.0292296 -0.80224 0
-0.0583887 -0.79934 0
-0.0311282 -0.772079 0
-0.0621814 -0.769288 0
0 -0.77301 0
-0.0311282 -0.772079 0
0 -0.740951 0
-0.0329518 -0.740058 0
-0.0311282 -0.772079 0
-0.0621814 -0.769288 0
-0.0329518 -0.740058 0
-0.0658243 -0.737383 0
0 -0.740951 0
-0.0329518 -0.740058 0
0 -0.707107 0
-0.0346961 -0.706255 0
-0.0329518 -0.740058 0
-0.0658243 -0.737383 0
-0.0346961 -0.706255 0
-0.0693086 -0.703702 0
0 -0.707107 0
-0.0346961 -0.706255 0
0 -0.671559 0
-0.0363567 -0.67075 0
-0.0346961 -0.706255 0
-0.0693086 -0.703702 0
-0.0363567 -0.67075 0
-0.0726259 -0.668325 0
0 -0.671559 0
-0.0363567 -0.67075 0
0 -0.634393 0
-0.0379299 -0.633629 0
-0.0363567 -0.67075 0
-0.0726259 -0.668325 0
-0.0379299 -0.633629 0
-0.0757683 -0.631338 0
0 -0.634393 0
-0.0379299 -0.633629 0
0 -0.595699 0
-0.0394115 -0.594982 0
-0.0379299 -0.633629 0
-0.0757683 -0.631338 0
-0.0394115 -0.594982 0
-0.0787281 -0.592831 0
0 -0.595699 0
-0.0394115 -0.594982 0
0 -0.55557 0
-0.0407983 -0.554901 0
-0.0394115 -0.594982 0
-0.0787281 -0.592831 0
-0.0407983 -0.554901 0
-0.0814983 -0.552895 0
0 -0.55557 0
-0.0407983 -0.554901 0
0 -0.514103 0
-0.0420867 -0.513483 0
-0.0407983 -0.554901 0
-0.0814983 -0.552895 0
-0.0420867 -0.513483 0
-0.0840721 -0.511627 0
0 -0.514103 0
-0.0420867 -0.513483 0
0 -0.471397 0
-0.0432739 -0.470829 0
-0.0420867 -0.513483 0
-0.0840721 -0.511627 0
-0.0432739 -0.470829 0
-0.0864434 -0.469127 0
0 -0.471397 0
-0.0432739 -0.470829 0
0 -0.427555 0
-0.0443566 -0.42704 0
-0.0432739 -0.470829 0
-0.0864434 -0.469127 0
-0.0443566 -0.42704 0
-0.0886065 -0.425496 0
0 -0.427555 0
-0.0443566 -0.42704 0
0 -0.382683 0
-0.0453327 -0.382222 0
-0.0443566 -0.42704 0
-0.0886065 -0.425496 0
-0.0453327 -0.382222 0
-0.090556 -0.38084 0
0 -0.382683 0
-0.0453327 -0.382222 0
0 -0.33689 0
-0.0461993 -0.336484 0
-0.0453327 -0.382222 0
-0.090556 -0.38084 0
-0.0461993 -0.336484 0
-0.0922875 -0.335267 0
0 -0.33689 0
-0.0461993 -0.336484 0
0 -0.290285 0
-0.0469549 -0.289935 0
-0.0461993 -0.336484 0
-0.0922875 -0.335267 0
-0.0469549 -0.289935 0
-0.0937966 -0.288887 0
0 -0.290285 0
-0.0469549 -0.289935 0
0 -0.24298 0
-0.0475971 -0.242687 0
-0.0469549 -0.289935 0
-0.0937966 -0.288887 0
-0.0475971 -0.242687 0
-0.0950798 -0.24181 0
0 -0.24298 0
-0.0475971 -0.242687 0
0 -0.19509 0
-0.048125 -0.194855 0
-0.0475971 -0.242687 0
-0.0950798 -0.24181 0
-0.048125 -0.194855 0
-0.0961338 -0.194151 0
0 -0.19509 0
-0.048125 -0.194855 0
0 -0.14673 0
-0.0485366 -0.146554 0
-0.048125 -0.194855 0
-0.0961338 -0.194151 0
-0.0485366 -0.146554 0
-0.0969564 -0.146024 0
0 -0.14673 0
-0.0485366 -0.146554 0
0 -0.0980171 0
-0.0488316 -0.0978989 0
-0.0485366 -0.146554 0
-0.0969564 -0.146024 0
-0.0488316 -0.0978989 0
-0.0975453 -0.0975449 0
0 -0.0980171 0
-0.0488316 -0.0978989 0
0 -0.0490677 0
-0.0490086 -0.0490084 0
-0.0488316 -0.0978989 0
-0.0975453 -0.0975449 0
-0.0490086 -0.0490084 0
-0.0978992 -0.0488313 0
0 -0.0490677 0
-0.0490086 -0.0490084 0
0 -1.22465e-16 0
-0.0490677 -1.22317e-16 0
-0.0490086 -0.0490084 0
-0.0978992 -0.0488313 0
-0.0490677 -1.22317e-16 0
-0.0980171 -1.21875e-16 0
0.0980171 0 0
0.14673 0 0
0.0978989 -0.0488316 0
0.146554 -0.0485367 0
0.14673 0 0
0.19509 0 0
0.146554 -0.0485367 0
0.194855 -0.0481251 0
0.0978989 -0.0488316 0
0.146554 -0.0485367 0
0.097545 -0.0975454 0
0.146024 -0.0969565 0
0.146554 -0.0485367 0
0.194855 -0.0481251 0
0.146024 -0.0969565 0
0.194151 -0.096134 0
0.097545 -0.0975454 0
0.146024 -0.0969565 0
0.0969562 -0.146024 0
0.145142 -0.145143 0
0.146024 -0.0969565 0
0.194151 -0.096134 0
0.145142 -0.145143 0
0.192979 -0.143911 0
0.0969562 -0.146024 0
0.145142 -0.145143 0
0.0961337 -0.194151 0
0.143911 -0.192979 0
0.145142 -0.145143 0
0.192979 -0.143911 0
0.143911 -0.192979 0
0.191342 -0.191342 0
0.0961337 -0.194151 0
0.143911 -0.192979 0
0.0950796 -0.24181 0
0.142333 -0.240351 0
0.143911 -0.192979 0
0.191342 -0.191342 0
0.142333 -0.240351 0
0.189244 -0.238312 0
0.0950796 -0.24181 0
0.142333 -0.240351 0
0.0937965 -0.288887 0
0.140412 -0.287143 0
0.142333 -0.240351 0
0.189244 -0.238312 0
0.140412 -0.287143 0
0.18669 -0.284707 0
0.0937965 -0.288887 0
0.140412 -0.287143 0
0.0922874 -0.335268 0
0.138153 -0.333244 0
0.140412 -0.287143 0
0.18669 -0.284707 0
0.138153 -0.333244 0
0.183686 -0.330417 0
0.0922874 -0.335268 0
0.138153 -0.333244 0
0.090556 -0.380841 0
0.135561 -0.378542 0
0.138153 -0.333244 0
0.183686 -0.330417 0
0.135561 -0.378542 0
0.18024 -0.375331 0
0.090556 -0.380841 0
0.135561 -0.378542 0
0.0886064 -0.425496 0
0.132643 -0.422928 0
0.135561 -0.378542 0
0.18024 -0.375331 0
0.132643 -0.422928 0
0.176359 -0.41934 0
0.0886064 -0.425496 0
0.132643 -0.422928 0
0.0864433 -0.469127 0
0.129405 -0.466295 0
0.132643 -0.422928 0
0.176359 -0.41934 0
0.129405 -0.466295 0
0.172054 -0.462339 0
0.0864433 -0.469127 0
0.129405 -0.466295 0
0.0840721 -0.511627 0
0.125855 -0.508539 0
0.129405 -0.466295 0
0.172054 -0.462339 0
0.125855 -0.508539 0
0.167334 -0.504225 0
0.0840721 -0.511627 0
0.125855 -0.508539 0
0.0814982 -0.552895 0
0.122002 -0.549557 0
0.125855 -0.508539 0
0.167334 -0.504225 0
0.122002 -0.549557 0
0.162212 -0.544895 0
0.0814982 -0.552895 0
0.122002 -0.549557 0
0.0787281 -0.592831 0
0.117855 -0.589252 0
0.122002 -0.549557 0
0.162212 -0.544895 0
0.117855 -0.589252 0
0.156698 -0.584253 0
0.0787281 -0.592831 0
0.117855 -0.589252 0
0.0757682 -0.631339 0
0.113424 -0.627527 0
0.117855 -0.589252 0
0.156698 -0.584253 0
0.113424 -0.627527 0
0.150807 -0.622204 0
0.0757682 -0.631339 0
0.113424 -0.627527 0
0.0726259 -0.668325 0
0.10872 -0.66429 0
0.113424 -0.627527 0
0.150807 -0.622204 0
0.10872 -0.66429 0
0.144552 -0.658655 0
0.0726259 -0.668325 0
0.10872 -0.66429 0
0.0693085 -0.703702 0
0.103754 -0.699454 0
0.10872 -0.66429 0
0.144552 -0.658655 0
0.103754 -0.699454 0
0.13795 -0.69352 0
0.0693085 -0.703702 0
0.103754 -0.699454 0
0.0658243 -0.737383 0
0.0985381 -0.732932 0
0.103754 -0.699454 0
0.13795 -0.69352 0
0.0985381 -0.732932 0
0.131015 -0.726714 0
0.0658243 -0.737383 0
0.0985381 -0.732932 0
0.0621814 -0.769288 0
0.0930848 -0.764644 0
0.0985381 -0.732932 0
0.131015 -0.726714 0
0.0930848 -0.764644 0
0.123764 -0.758157 0
0.0621814 -0.769288 0
0.0930848 -0.764644 0
0.0583887 -0.79934 0
0.0874072 -0.794514 0
0.0930848 -0.764644 0
0.123764 -0.758157 0
0.0874072 -0.794514 0
0.116215 -0.787774 0
0.0583887 -0.79934 0
0.0874072 -0.794514 0
0.0544554 -0.827466 0
0.081519 -0.82247 0
0.0874072 -0.794514 0
0.116215 -0.787774 0
0.081519 -0.82247 0
0.108386 -0.815493 0
0.0544554 -0.827466 0
0.081519 -0.82247 0
0.0503909 -0.853598 0
0.0754345 -0.848445 0
0.081519 -0.82247 0
0.108386 -0.815493 0
0.0754345 -0.848445 0
0.100296 -0.841248 0
0.0503909 -0.853598 0
0.0754345 -0.848445 0
0.0462049 -0.877675 0
0.0691682 -0.872376 0
0.0754345 -0.848445 0
0.100296 -0.841248 0
0.0691682 -0.872376 0
0.0919648 -0.864975 0
0.0462049 -0.877675 0
0.0691682 -0.872376 0
0.0419077 -0.899636 0
0.0627353 -0.894205 0
0.0691682 -0.872376 0
0.0919648 -0.864975 0
0.0627353 -0.894205 0
0.0834118 -0.886619 0
0.0419077 -0.899636 0
0.0627353 -0.894205 0
0.0375095 -0.919431 0
0.0561513 -0.91388 0
0.0627353 -0.894205 0
0.0834118 -0.886619 0
0.0561513 -0.91388 0
0.0746577 -0.906127 0
0.0375095 -0.919431 0
0.0561513 -0.91388 0
0.033021 -0.93701 0
0.0494319 -0.931353 0
0.0561513 -0.91388 0
0.0746577 -0.906127 0
0.0494319 -0.931353 0
0.0657239 -0.923452 0
0.033021 -0.93701 0
0.0494319 -0.931353 0
0.0284528 -0.952332 0
0.0425936 -0.946583 0
0.0494319 -0.931353 0
0.0657239 -0.923452 0
0.0425936 -0.946583 0
0.0566316 -0.938553 0
0.0284528 -0.952332 0
0.0425936 -0.946583 0
0.0238162 -0.96536 0
0.0356525 -0.959532 0
0.0425936 -0.946583 0
0.0566316 -0.938553 0
0.0356525 -0.959532 0
0.047403 -0.951392 0
0.0238162 -0.96536 0
0.0356525 -0.959532 0
0.0191222 -0.976062 0
0.0286257 -0.970169 0
0.0356525 -0.959532 0
0.047403 -0.951392 0
0.0286257 -0.970169 0
0.0380602 -0.961939 0
0.0191222 -0.976062 0
0.0286257 -0.970169 0
0.0143821 -0.984413 0
0.0215298 -0.97847 0
0.0286257 -0.970169 0
0.0380602 -0.961939 0
0.0215298 -0.97847 0
0.0286256 -0.970169 0
0.0143821 -0.984413 0
0.0215298 -0.97847 0
0.00960733 -0.990392 0
0.0143821 -0.984413 0
0.0215298 -0.97847 0
0.0286256 -0.970169 0
0.0143821 -0.984413 0
0.0191221 -0.976062 0
0.00960733 -0.990392 0
0.0143821 -0.984413 0
0.00480947 -0.993986 0
0.00719969 -0.987985 0
0.0143821 -0.984413 0
0.0191221 -0.976062 0
0.00719969 -0.987985 0
0.00957257 -0.979603 0
0.00480947 -0.993986 0
0.00719969 -0.987985 0
-1.73252e-08 -0.995184 0
-2.2774e-08 -0.989176 0
0.00719969 -0.987985 0
0.00957257 -0.979603 0
-2.2774e-08 -0.989176 0
-4.3687e-08 -0.980785 0
-1.73252e-08 -0.995184 0
-2.2774e-08 -0.989176 0
-0.00480947 -0.993986 0
-0.00719974 -0.987985 0
-2.2774e-08 -0.989176 0
-4.3687e-08 -0.980785 0
-0.00719974 -0.987985 0
-0.00957266 -0.979603 0
-0.00480947 -0.993986 0
-0.00719974 -0.987985 0
-0.00960737 -0.990392 0
-0.0143821 -0.984413 0
-0.00719974 -0.987985 0
-0.00957266 -0.979603 0
-0.0143821 -0.984413 0
-0.0191222 -0.976062 0
-0.00960737 -0.990392 0
-0.0143821 -0.984413 0
-0.0143821 -0.984413 0
-0.0215298 -0.97847 0
-0.0143821 -0.984413 0
-0.0191222 -0.976062 0
-0.0215298 -0.97847 0
-0.0286257 -0.970169 0
-0.0143821 -0.984413 0
-0.0215298 -0.97847 0
-0.0191222 -0.976062 0
-0.0286257 -0.970169 0
-0.0215298 -0.97847 0
-0.0286257 -0.970169 0
-0.0286257 -0.970169 0
-0.0380602 -0.961939 0
-0.0191222 -0.976062 0
-0.0286257 -0.970169 0
-0.0238162 -0.96536 0
-0.0356526 -0.959532 0
-0.0286257 -0.970169 0
-0.0380602 -0.961939 0
-0.0356526 -0.959532 0
-0.0474031 -0.951392 0
-0.0238162 -0.96536 0
-0.0356526 -0.959532 0
-0.0284529 -0.952332 0
-0.0425936 -0.946582 0
-0.0356526 -0.959532 0
-0.0474031 -0.951392 0
-0.0425936 -0.946582 0
-0.0566317 -0.938552 0
-0.0284529 -0.952332 0
-0.0425936 -0.946582 0
-0.033021 -0.93701 0
-0.049432 -0.931353 0
-0.0425936 -0.946582 0
-0.0566317 -0.938552 0
-0.049432 -0.931353 0
-0.0657239 -0.923452 0
-0.033021 -0.93701 0
-0.049432 -0.931353 0
-0.0375095 -0.91943 0
-0.0561513 -0.913879 0
-0.049432 -0.931353 0
-0.0657239 -0.923452 0
-0.0561513 -0.913879 0
-0.0746578 -0.906127 0
-0.0375095 -0.91943 0
-0.0561513 -0.913879 0
-0.0419077 -0.899636 0
-0.0627353 -0.894204 0
-0.0561513 -0.913879 0
-0.0746578 -0.906127 0
-0.0627353 -0.894204 0
-0.0834118 -0.886619 0
-0.0419077 -0.899636 0
-0.0627353 -0.894204 0
-0.0462049 -0.877674 0
-0.0691682 -0.872375 0
-0.0627353 -0.894204 0
-0.0834118 -0.886619 0
-0.0691682 -0.872375 0
-0.0919649 -0.864975 0
-0.0462049 -0.877674 0
-0.0691682 -0.872375 0
-0.0503909 -0.853598 0
-0.0754345 -0.848445 0
-0.0691682 -0.872375 0
-0.0919649 -0.864975 0
-0.0754345 -0.848445 0
-0.100296 -0.841247 0
-0.0503909 -0.853598 0
-0.0754345 -0.848445 0
-0.0544554 -0.827466 0
-0.081519 -0.82247 0
-0.0754345 -0.848445 0
-0.100296 -0.841247 0
-0.081519 -0.82247 0
-0.108386 -0.815493 0
-0.0544554 -0.827466 0
-0.081519 -0.82247 0
-0.0583887 -0.79934 0
-0.0874072 -0.794514 0
-0.081519 -0.82247 0
-0.108386 -0.815493 0
-0.0874072 -0.794514 0
-0.116215 -0.787774 0
-0.0583887 -0.79934 0
-0.0874072 -0.794514 0
-0.0621814 -0.769288 0
-0.0930848 -0.764643 0
-0.0874072 -0.794514 0
-0.116215 -0.787774 0
-0.0930848 -0.764643 0
-0.123764 -0.758157 0
-0.0621814 -0.769288 0
-0.0930848 -0.764643 0
-0.0658243 -0.737383 0
-0.0985381 -0.732931 0
-0.0930848 -0.764643 0
-0.123764 -0.758157 0
-0.0985381 -0.732931 0
-0.131015 -0.726713 0
-0.0658243 -0.737383 0
-0.0985381 -0.732931 0
-0.0693086 -0.703702 0
-0.103754 -0.699453 0
-0.0985381 -0.732931 0
-0.131015 -0.726713 0
-0.103754 -0.699453 0
-0.13795 -0.693519 0
-0.0693086 -0.703702 0
-0.103754 -0.699453 0
-0.0726259 -0.668325 0
-0.10872 -0.66429 0
-0.103754 -0.699453 0
-0.13795 -0.693519 0
-0.10872 -0.66429 0
-0.144552 -0.658655 0
-0.0726259 -0.668325 0
-0.10872 -0.66429 0
-0.0757683 -0.631338 0
-0.113424 -0.627527 0
-0.10872 -0.66429 0
-0.144552 -0.658655 0
-0.113424 -0.627527 0
-0.150807 -0.622203 0
-0.0757683 -0.631338 0
-0.113424 -0.627527 0
-0.0787281 -0.592831 0
-0.117855 -0.589251 0
-0.113424 -0.627527 0
-0.150807 -0.622203 0
-0.117855 -0.589251 0
-0.156698 -0.584253 0
-0.0787281 -0.592831 0
-0.117855 -0.589251 0
-0.0814983 -0.552895 0
-0.122002 -0.549557 0
-0.117855 -0.589251 0
-0.156698 -0.584253 0
-0.122002 -0.549557 0
-0.162212 -0.544895 0
-0.0814983 -0.552895 0
-0.122002 -0.549557 0
-0.0840721 -0.511627 0
-0.125855 -0.508538 0
-0.122002 -0.549557 0
-0.162212 -0.544895 0
-0.125855 -0.508538 0
-0.167335 -0.504224 0
-0.0840721 -0.511627 0
-0.125855 -0.508538 0
-0.0864434 -0.469127 0
-0.129405 -0.466294 0
-0.125855 -0.508538 0
-0.167335 -0.504224 0
-0.129405 -0.466294 0
-0.172054 -0.462339 0
-0.0864434 -0.469127 0
-0.129405 -0.466294 0
-0.0886065 -0.425496 0
-0.132643 -0.422927 0
-0.129405 -0.466294 0
-0.172054 -0.462339 0
-0.132643 -0.422927 0