# vtk DataFile Version 3.0
#This file was generated by the deal.II library on 2026/6/6 at 13:03:12
ASCII
DATASET UNSTRUCTURED_GRID

POINTS 100 double
0 0 0
0.2 0 0
0 0.2 0
0.2 0.2 0
0 0.2 0
0.2 0.2 0
0 0.4 0
0.2 0.4 0
0 0.4 0
0.2 0.4 0
0 0.6 0
0.2 0.6 0
0 0.6 0
0.2 0.6 0
0 0.8 0
0.2 0.8 0
0 0.8 0
0.2 0.8 0
0 1 0
0.2 1 0
0.2 0 0
0.4 0 0
0.2 0.2 0
0.4 0.2 0
0.2 0.2 0
0.4 0.2 0
0.2 0.4 0
0.4 0.4 0
0.2 0.4 0
0.4 0.4 0
0.2 0.6 0
0.4 0.6 0
0.2 0.6 0
0.4 0.6 0
0.2 0.8 0
0.4 0.8 0
0.2 0.8 0
0.4 0.8 0
0.2 1 0
0.4 1 0
0.4 0 0
0.6 0 0
0.4 0.2 0
0.6 0.2 0
0.4 0.2 0
0.6 0.2 0
0.4 0.4 0
0.6 0.4 0
0.4 0.4 0
0.6 0.4 0
0.4 0.6 0
0.6 0.6 0
0.4 0.6 0
0.6 0.6 0
0.4 0.8 0
0.6 0.8 0
0.4 0.8 0
0.6 0.8 0
0.4 1 0
0.6 1 0
0.6 0 0
0.8 0 0
0.6 0.2 0
0.8 0.2 0
0.6 0.2 0
0.8 0.2 0
0.6 0.4 0
0.8 0.4 0
0.6 0.4 0
0.8 0.4 0
0.6 0.6 0
0.8 0.6 0
0.6 0.6 0
0.8 0.6 0
0.6 0.8 0
0.8 0.8 0
0.6 0.8 0
0.8 0.8 0
0.6 1 0
0.8 1 0
0.8 0 0
1 0 0
0.8 0.2 0
1 0.2 0
0.8 0.2 0
1 0.2 0
0.8 0.4 0
1 0.4 0
0.8 0.4 0
1 0.4 0
0.8 0.6 0
1 0.6 0
0.8 0.6 0
1 0.6 0
0.8 0.8 0
1 0.8 0
0.8 0.8 0
1 0.8 0
0.8 1 0
1 1 0

CELLS 25 125
4	0	1	3	2
4	4	5	7	6
4	8	9	11	10
4	12	13	15	14
4	16	17	19	18
4	20	21	23	22
4	24	25	27	26
4	28	29	31	30
4	32	33	35	34
4	36	37	39	38
4	40	41	43	42
4	44	45	47	46
4	48	49	51	50
4	52	53	55	54
4	56	57	59	58
4	60	61	63	62
4	64	65	67	66
4	68	69	71	70
4	72	73	75	74
4	76	77	79	78
4	80	81	83	82
4	84	85	87	86
4	88	89	91	90
4	92	93	95	94
4	96	97	99	98

CELL_TYPES 25
 9 9 9 9 9 9 9 9 9 9 9 9 9 9 9 9 9 9 9 9 9 9 9 9 9
POINT_DATA 100
VECTORS velocity double
0 0 0
0.587785 0 0
0 -0.587785 0
0.475524 -0.475524 0
0 -0.587785 0
0.475524 -0.475524 0
0 -0.951057 0
0.181634 -0.769421 0
0 -0.951057 0
0.181634 -0.769421 0
0 -0.951057 0
-0.181637 -0.769418 0
0 -0.951057 0
-0.181637 -0.769418 0
0 -0.587785 0
-0.475526 -0.475526 0
0 -0.587785 0
-0.475526 -0.475526 0
0 -1.22465e-16 0
-0.587785 -9.9076e-17 0
0.587785 0 0
0.951057 0 0
0.475524 -0.475524 0
0.769418 -0.181635 0
0.475524 -0.475524 0
0.769418 -0.181635 0
0.181634 -0.769421 0
0.29389 -0.293893 0
0.181634 -0.769421 0
0.29389 -0.293893 0
-0.181637 -0.769418 0
-0.293894 -0.293891 0
-0.181637 -0.769418 0
-0.293894 -0.293891 0
-0.475526 -0.475526 0
-0.769421 -0.181636 0
-0.475526 -0.475526 0
-0.769421 -0.181636 0
-0.587785 -9.9076e-17 0
-0.951057 -3.78437e-17 0
0.951057 0 0
0.951057 0 0
0.769418 -0.181635 0
0.769421 0.181635 0
0.769418 -0.181635 0
0.769421 0.181635 0
0.29389 -0.293893 0
0.293892 0.293891 0
0.29389 -0.293893 0
0.293892 0.293891 0
-0.293894 -0.293891 0
-0.293892 0.293893 0
-0.293894 -0.293891 0
-0.293892 0.293893 0
-0.769421 -0.181636 0
-0.769418 0.181635 0
-0.769421 -0.181636 0
-0.769418 0.181635 0
-0.951057 -3.78437e-17 0
-0.951057 3.78437e-17 0
0.951057 0 0
0.587785 0 0
0.769421 0.181635 0
0.475524 0.475523 0
0.769421 0.181635 0
0.475524 0.475523 0
0.293892 0.293891 0
0.181633 0.769418 0
0.293892 0.293891 0
0.181633 0.769418 0
-0.293892 0.293893 0
-0.181636 0.769421 0
-0.293892 0.293893 0
-0.181636 0.769421 0
-0.769418 0.181635 0
-0.475525 0.475526 0
-0.769418 0.181635 0
-0.475525 0.475526 0
-0.951057 3.78437e-17 0
-0.587785 9.9076e-17 0
0.587785 0 0
1.22465e-16 0 0
0.475524 0.475523 0
9.9076e-17 0.587785 0
0.475524 0.475523 0
9.9076e-17 0.587785 0
0.181633 0.769418 0
3.78437e-17 0.951057 0
0.181633 0.769418 0
3.78437e-17 0.951057 0
-0.181636 0.769421 0
-3.78437e-17 0.951057 0
-0.181636 0.769421 0
-3.78437e-17 0.951057 0
-0.475525 0.475526 0
-9.9076e-17 0.587785 0
-0.475525 0.475526 0
-9.9076e-17 0.587785 0
-0.587785 9.9076e-17 0
-1.22465e-16 1.22465e-16 0
VECTORS velocity_error double
0 0 0
0 0 0
0 0 0
3.95903e-06 -3.81067e-06 0
0 0 0
3.95903e-06 -3.81067e-06 0
0 0 0
1.52867e-06 -1.39255e-07 0
0 0 0
1.52867e-06 -1.39255e-07 0
0 0 0
9.24238e-07 -2.61193e-06 0
0 0 0
9.24238e-07 -2.61193e-06 0
0 0 0
-2.06725e-06 -2.71236e-06 0
0 0 0
-2.06725e-06 -2.71236e-06 0
0 0 0
0 0 0
0 0 0
0 0 0
3.95903e-06 -3.81067e-06 0
3.14895e-06 -6.35465e-07 0
3.95903e-06 -3.81067e-06 0
3.14895e-06 -6.35465e-07 0
1.52867e-06 -1.39255e-07 0
2.4184e-06 5.029e-07 0
1.52867e-06 -1.39255e-07 0
2.4184e-06 5.029e-07 0
9.24238e-07 -2.61193e-06 0
1.12548e-06 -1.79524e-06 0
9.24238e-07 -2.61193e-06 0
1.12548e-06 -1.79524e-06 0
-2.06725e-06 -2.71236e-06 0
2.57238e-07 1.64848e-08 0
-2.06725e-06 -2.71236e-06 0
2.57238e-07 1.64848e-08 0
0 0 0
0 0 0
0 0 0
0 0 0
3.14895e-06 -6.35465e-07 0
1.22237e-07 1.08692e-06 0
3.14895e-06 -6.35465e-07 0
1.22237e-07 1.08692e-06 0
2.4184e-06 5.029e-07 0
1.59447e-07 1.37071e-06 0
2.4184e-06 5.029e-07 0
1.59447e-07 1.37071e-06 0
1.12548e-06 -1.79524e-06 0
-7.47588e-07 -4.63057e-07 0
1.12548e-06 -1.79524e-06 0
-7.47588e-07 -4.63057e-07 0
2.57238e-07 1.64848e-08 0
-2.61895e-06 6.80761e-07 0
2.57238e-07 1.64848e-08 0
-2.61895e-06 6.80761e-07 0
0 0 0
0 0 0
0 0 0
0 0 0
1.22237e-07 1.08692e-06 0
4.23682e-06 4.83455e-06 0
1.22237e-07 1.08692e-06 0
4.23682e-06 4.83455e-06 0
1.59447e-07 1.37071e-06 0
2.2404e-06 3.156e-06 0
1.59447e-07 1.37071e-06 0
2.2404e-06 3.156e-06 0
-7.47588e-07 -4.63057e-07 0
4.58189e-07 -2.74328e-07 0
-7.47588e-07 -4.63057e-07 0
4.58189e-07 -2.74328e-07 0
-2.61895e-06 6.80761e-07 0
-3.58784e-06 2.49336e-06 0
-2.61895e-06 6.80761e-07 0
-3.58784e-06 2.49336e-06 0
0 0 0
0 0 0
0 0 0
0 0 0
4.23682e-06 4.83455e-06 0
0 0 0
4.23682e-06 4.83455e-06 0
0 0 0
2.2404e-06 3.156e-06 0
0 0 0
2.2404e-06 3.156e-06 0
0 0 0
4.58189e-07 -2.74328e-07 0
0 0 0
4.58189e-07 -2.74328e-07 0
0 0 0
-3.58784e-06 2.49336e-06 0
0 0 0
-3.58784e-06 2.49336e-06 0
0 0 0
0 0 0
0 0 0
SCALARS pressure double 1
LOOKUP_TABLE default
2.007e-05 -2.12529e-05 0.587674 0.475444 0.587674 0.475444 0.950882 0.769279 0.950882 0.769279 0.950882 0.769278 0.950882 0.769278 0.587675 0.475444 0.587675 0.475444 1.55433e-05 -2.10374e-05 -2.12529e-05 -4.82329e-06 0.475444 0.181602 0.475444 0.181602 0.769279 0.293838 0.769279 0.293838 0.769278 0.293838 0.769278 0.293838 0.475444 0.181603 0.475444 0.181603 -2.10374e-05 -5.67355e-06 -4.82329e-06 6.04539e-06 0.181602 -0.181603 0.181602 -0.181603 0.293838 -0.293839 0.293838 -0.293839 0.293838 -0.293839 0.293838 -0.293839 0.181603 -0.181603 0.181603 -0.181603 -5.67355e-06 5.9437e-06 6.04539e-06 1.74241e-05 -0.181603 -0.475442 -0.181603 -0.475442 -0.293839 -0.76928 -0.293839 -0.76928 -0.293839 -0.769279 -0.293839 -0.769279 -0.181603 -0.475443 -0.181603 -0.475443 5.9437e-06 1.84529e-05 1.74241e-05 5.8705e-06 -0.475442 -0.587678 -0.475442 -0.587678 -0.76928 -0.950881 -0.76928 -0.950881 -0.769279 -0.950881 -0.769279 -0.950881 -0.475443 -0.587678 -0.475443 -0.587678 1.84529e-05 1.34387e-06 
SCALARS pressure_error double 1
LOOKUP_TABLE default
-2.00675e-05 2.12553e-05 0.000111013 8.39221e-05 0.000111013 8.39221e-05 0.000174869 0.000142227 0.000174869 0.000142227 0.000174608 0.000142414 0.000174608 0.000142414 0.000109993 8.418e-05 0.000109993 8.418e-05 -1.55409e-05 2.10398e-05 2.12553e-05 4.82572e-06 8.39221e-05 3.32841e-05 8.39221e-05 3.32841e-05 0.000142227 5.49912e-05 0.000142227 5.49912e-05 0.000142414 5.50216e-05 0.000142414 5.50216e-05 8.418e-05 3.2969e-05 8.418e-05 3.2969e-05 2.10398e-05 5.67597e-06 4.82572e-06 -6.04297e-06 3.32841e-05 -3.23187e-05 3.32841e-05 -3.23187e-05 5.49912e-05 -5.37686e-05 5.49912e-05 -5.37686e-05 5.50216e-05 -5.3738e-05 5.50216e-05 -5.3738e-05 3.2969e-05 -3.21582e-05 3.2969e-05 -3.21582e-05 5.67597e-06 -5.94127e-06 -6.04297e-06 -1.74217e-05 -3.23187e-05 -8.58757e-05 -3.23187e-05 -8.58757e-05 -5.37686e-05 -0.000141288 -5.37686e-05 -0.000141288 -5.3738e-05 -0.000141577 -5.3738e-05 -0.000141577 -3.21582e-05 -8.56177e-05 -3.21582e-05 -8.56177e-05 -5.94127e-06 -1.84504e-05 -1.74217e-05 -5.86807e-06 -8.58757e-05 -0.000107188 -8.58757e-05 -0.000107188 -0.000141288 -0.000175723 -0.000141288 -0.000175723 -0.000141577 -0.000175236 -0.000141577 -0.000175236 -8.56177e-05 -0.000107395 -8.56177e-05 -0.000107395 -1.84504e-05 -1.34145e-06 
SCALARS temperature double 1
LOOKUP_TABLE default
0 0 0 0 0 0 0 0 0 0 0 0 0 0 0 0 0 0 0 0 0 0 0 0 0 0 0 0 0 0 0 0 0 0 0 0 0 0 0 0 0 0 0 0 0 0 0 0 0 0 0 0 0 0 0 0 0 0 0 0 0 0 0 0 0 0 0 0 0 0 0 0 0 0 0 0 0 0 0 0 0 0 0 0 0 0 0 0 0 0 0 0 0 0 0 0 0 0 0 0 
SCALARS temperature_error double 1
LOOKUP_TABLE default
0 0 0.587785 0.181636 0.587785 0.181636 0.951057 0.293893 0.951057 0.293893 0.951057 0.293893 0.951057 0.293893 0.587785 0.181636 0.587785 0.181636 1.22465e-16 3.78437e-17 0 0 0.181636 -0.475528 0.181636 -0.475528 0.293893 -0.769421 0.293893 -0.769421 0.293893 -0.769421 0.293893 -0.769421 0.181636 -0.475528 0.181636 -0.475528 3.78437e-17 -9.9076e-17 0 0 -0.475528 -0.475528 -0.475528 -0.475528 -0.769421 -0.769421 -0.769421 -0.769421 -0.769421 -0.769421 -0.769421 -0.769421 -0.475528 -0.475528 -0.475528 -0.475528 -9.9076e-17 -9.9076e-17 0 0 -0.475528 0.181636 -0.475528 0.181636 -0.769421 0.293893 -0.769421 0.293893 -0.769421 0.293893 -0.769421 0.293893 -0.475528 0.181636 -0.475528 0.181636 -9.9076e-17 3.78437e-17 0 0 0.181636 0.587785 0.181636 0.587785 0.293893 0.951057 0.293893 0.951057 0.293893 0.951057 0.293893 0.951057 0.181636 0.587785 0.181636 0.587785 3.78437e-17 1.22465e-16 
