# vtk DataFile Version 3.0
#This file was generated by the deal.II library on 2026/6/6 at 13:03:09
ASCII
DATASET UNSTRUCTURED_GRID

POINTS 100 double
0 0 0
0.2 0 0
0 0.2 0
0.2 0.2 0
0 0.2 0
0.2 0.2 0
0 0.4 0
0.2 0.4 0
0 0.4 0
0.2 0.4 0
0 0.6 0
0.2 0.6 0
0 0.6 0
0.2 0.6 0
0 0.8 0
0.2 0.8 0
0 0.8 0
0.2 0.8 0
0 1 0
0.2 1 0
0.2 0 0
0.4 0 0
0.2 0.2 0
0.4 0.2 0
0.2 0.2 0
0.4 0.2 0
0.2 0.4 0
0.4 0.4 0
0.2 0.4 0
0.4 0.4 0
0.2 0.6 0
0.4 0.6 0
0.2 0.6 0
0.4 0.6 0
0.2 0.8 0
0.4 0.8 0
0.2 0.8 0
0.4 0.8 0
0.2 1 0
0.4 1 0
0.4 0 0
0.6 0 0
0.4 0.2 0
0.6 0.2 0
0.4 0.2 0
0.6 0.2 0
0.4 0.4 0
0.6 0.4 0
0.4 0.4 0
0.6 0.4 0
0.4 0.6 0
0.6 0.6 0
0.4 0.6 0
0.6 0.6 0
0.4 0.8 0
0.6 0.8 0
0.4 0.8 0
0.6 0.8 0
0.4 1 0
0.6 1 0
0.6 0 0
0.8 0 0
0.6 0.2 0
0.8 0.2 0
0.6 0.2 0
0.8 0.2 0
0.6 0.4 0
0.8 0.4 0
0.6 0.4 0
0.8 0.4 0
0.6 0.6 0
0.8 0.6 0
0.6 0.6 0
0.8 0.6 0
0.6 0.8 0
0.8 0.8 0
0.6 0.8 0
0.8 0.8 0
0.6 1 0
0.8 1 0
0.8 0 0
1 0 0
0.8 0.2 0
1 0.2 0
0.8 0.2 0
1 0.2 0
0.8 0.4 0
1 0.4 0
0.8 0.4 0
1 0.4 0
0.8 0.6 0
1 0.6 0
0.8 0.6 0
1 0.6 0
0.8 0.8 0
1 0.8 0
0.8 0.8 0
1 0.8 0
0.8 1 0
1 1 0

CELLS 25 125
4	0	1	3	2
4	4	5	7	6
4	8	9	11	10
4	12	13	15	14
4	16	17	19	18
4	20	21	23	22
4	24	25	27	26
4	28	29	31	30
4	32	33	35	34
4	36	37	39	38
4	40	41	43	42
4	44	45	47	46
4	48	49	51	50
4	52	53	55	54
4	56	57	59	58
4	60	61	63	62
4	64	65	67	66
4	68	69	71	70
4	72	73	75	74
4	76	77	79	78
4	80	81	83	82
4	84	85	87	86
4	88	89	91	90
4	92	93	95	94
4	96	97	99	98

CELL_TYPES 25
 9 9 9 9 9 9 9 9 9 9 9 9 9 9 9 9 9 9 9 9 9 9 9 9 9
POINT_DATA 100
VECTORS velocity double
0 0 0
0.587785 0 0
0 -0.587785 0
0.475531 -0.475528 0
0 -0.587785 0
0.475531 -0.475528 0
0 -0.951057 0
0.181641 -0.769424 0
0 -0.951057 0
0.181641 -0.769424 0
0 -0.951057 0
-0.181627 -0.769417 0
0 -0.951057 0
-0.181627 -0.769417 0
0 -0.587785 0
-0.475522 -0.47553 0
0 -0.587785 0
-0.475522 -0.47553 0
0 -1.22465e-16 0
-0.587785 -9.9076e-17 0
0.587785 0 0
0.951057 0 0
0.475531 -0.475528 0
0.769409 -0.181634 0
0.475531 -0.475528 0
0.769409 -0.181634 0
0.181641 -0.769424 0
0.293882 -0.293887 0
0.181641 -0.769424 0
0.293882 -0.293887 0
-0.181627 -0.769417 0
-0.29388 -0.293876 0
-0.181627 -0.769417 0
-0.29388 -0.293876 0
-0.475522 -0.47553 0
-0.769419 -0.181633 0
-0.475522 -0.47553 0
-0.769419 -0.181633 0
-0.587785 -9.9076e-17 0
-0.951057 -3.78437e-17 0
0.951057 0 0
0.951057 0 0
0.769409 -0.181634 0
0.76942 0.181641 0
0.769409 -0.181634 0
0.76942 0.181641 0
0.293882 -0.293887 0
0.293893 0.293882 0
0.293882 -0.293887 0
0.293893 0.293882 0
-0.29388 -0.293876 0
-0.293875 0.293887 0
-0.29388 -0.293876 0
-0.293875 0.293887 0
-0.769419 -0.181633 0
-0.76942 0.181635 0
-0.769419 -0.181633 0
-0.76942 0.181635 0
-0.951057 -3.78437e-17 0
-0.951057 3.78437e-17 0
0.951057 0 0
0.587785 0 0
0.76942 0.181641 0
0.475533 0.475533 0
0.76942 0.181641 0
0.475533 0.475533 0
0.293893 0.293882 0
0.181642 0.769412 0
0.293893 0.293882 0
0.181642 0.769412 0
-0.293875 0.293887 0
-0.181633 0.769414 0
-0.293875 0.293887 0
-0.181633 0.769414 0
-0.76942 0.181635 0
-0.475532 0.475528 0
-0.76942 0.181635 0
-0.475532 0.475528 0
-0.951057 3.78437e-17 0
-0.587785 9.9076e-17 0
0.587785 0 0
1.22465e-16 0 0
0.475533 0.475533 0
9.9076e-17 0.587785 0
0.475533 0.475533 0
9.9076e-17 0.587785 0
0.181642 0.769412 0
3.78437e-17 0.951057 0
0.181642 0.769412 0
3.78437e-17 0.951057 0
-0.181633 0.769414 0
-3.78437e-17 0.951057 0
-0.181633 0.769414 0
-3.78437e-17 0.951057 0
-0.475532 0.475528 0
-9.9076e-17 0.587785 0
-0.475532 0.475528 0
-9.9076e-17 0.587785 0
-0.587785 9.9076e-17 0
-1.22465e-16 1.22465e-16 0
VECTORS velocity_error double
0 0 0
0 0 0
0 0 0
-2.44058e-06 -4.00951e-07 0
0 0 0
-2.44058e-06 -4.00951e-07 0
0 0 0
-5.39951e-06 3.57159e-06 0
0 0 0
-5.39951e-06 3.57159e-06 0
0 0 0
-8.76206e-06 -3.76005e-06 0
0 0 0
-8.76206e-06 -3.76005e-06 0
0 0 0
-6.23727e-06 1.83705e-06 0
0 0 0
-6.23727e-06 1.83705e-06 0
0 0 0
0 0 0
0 0 0
0 0 0
-2.44058e-06 -4.00951e-07 0
1.17719e-05 -1.65924e-06 0
-2.44058e-06 -4.00951e-07 0
1.17719e-05 -1.65924e-06 0
-5.39951e-06 3.57159e-06 0
1.01942e-05 -5.65798e-06 0
-5.39951e-06 3.57159e-06 0
1.01942e-05 -5.65798e-06 0
-8.76206e-06 -3.76005e-06 0
-1.25174e-05 -1.67062e-05 0
-8.76206e-06 -3.76005e-06 0
-1.25174e-05 -1.67062e-05 0
-6.23727e-06 1.83705e-06 0
-1.55121e-06 -2.93986e-06 0
-6.23727e-06 1.83705e-06 0
-1.55121e-06 -2.93986e-06 0
0 0 0
0 0 0
0 0 0
0 0 0
1.17719e-05 -1.65924e-06 0
1.34567e-06 -5.73007e-06 0
1.17719e-05 -1.65924e-06 0
1.34567e-06 -5.73007e-06 0
1.01942e-05 -5.65798e-06 0
-8.69545e-07 1.08772e-05 0
1.01942e-05 -5.65798e-06 0
-8.69545e-07 1.08772e-05 0
-1.25174e-05 -1.67062e-05 0
-1.73895e-05 5.98962e-06 0
-1.25174e-05 -1.67062e-05 0
-1.73895e-05 5.98962e-06 0
-1.55121e-06 -2.93986e-06 0
-1.04828e-06 3.69319e-07 0
-1.55121e-06 -2.93986e-06 0
-1.04828e-06 3.69319e-07 0
0 0 0
0 0 0
0 0 0
0 0 0
1.34567e-06 -5.73007e-06 0
-5.1384e-06 -4.45548e-06 0
1.34567e-06 -5.73007e-06 0
-5.1384e-06 -4.45548e-06 0
-8.69545e-07 1.08772e-05 0
-6.73359e-06 9.05995e-06 0
-8.69545e-07 1.08772e-05 0
-6.73359e-06 9.05995e-06 0
-1.73895e-05 5.98962e-06 0
-2.60966e-06 6.46839e-06 0
-1.73895e-05 5.98962e-06 0
-2.60966e-06 6.46839e-06 0
-1.04828e-06 3.69319e-07 0
3.85188e-06 6.98025e-07 0
-1.04828e-06 3.69319e-07 0
3.85188e-06 6.98025e-07 0
0 0 0
0 0 0
0 0 0
0 0 0
-5.1384e-06 -4.45548e-06 0
0 0 0
-5.1384e-06 -4.45548e-06 0
0 0 0
-6.73359e-06 9.05995e-06 0
0 0 0
-6.73359e-06 9.05995e-06 0
0 0 0
-2.60966e-06 6.46839e-06 0
0 0 0
-2.60966e-06 6.46839e-06 0
0 0 0
3.85188e-06 6.98025e-07 0
0 0 0
3.85188e-06 6.98025e-07 0
0 0 0
0 0 0
0 0 0
SCALARS pressure double 1
LOOKUP_TABLE default
-0.0110827 0.00140841 0.589299 0.475174 0.589299 0.475174 0.950874 0.769288 0.950874 0.769288 0.950679 0.769336 0.950679 0.769336 0.589186 0.475252 0.589186 0.475252 -0.0117228 0.00167672 0.00140841 -0.000238701 0.475174 0.181583 0.475174 0.181583 0.769288 0.293881 0.769288 0.293881 0.769336 0.29384 0.769336 0.29384 0.475252 0.181546 0.475252 0.181546 0.00167672 -0.000163273 -0.000238701 6.74466e-05 0.181583 -0.181548 0.181583 -0.181548 0.293881 -0.293786 0.293881 -0.293786 0.29384 -0.293827 0.29384 -0.293827 0.181546 -0.181569 0.181546 -0.181569 -0.000163273 -0.000261275 6.74466e-05 0.00159554 -0.181548 -0.475678 -0.181548 -0.475678 -0.293786 -0.769322 -0.293786 -0.769322 -0.293827 -0.76929 -0.293827 -0.76929 -0.181569 -0.475599 -0.181569 -0.475599 -0.000261275 0.00140548 0.00159554 -0.0106796 -0.475678 -0.586372 -0.475678 -0.586372 -0.769322 -0.951179 -0.769322 -0.951179 -0.76929 -0.95097 -0.76929 -0.95097 -0.475599 -0.586027 -0.475599 -0.586027 0.00140548 -0.0113196 
SCALARS pressure_error double 1
LOOKUP_TABLE default
0.0110827 -0.00140841 -0.00151417 0.000354223 -0.00151417 0.000354223 0.000182849 0.000133155 0.000182849 0.000133155 0.000377168 8.47411e-05 0.000377168 8.47411e-05 -0.0014004 0.000275973 -0.0014004 0.000275973 0.0117228 -0.00167672 -0.00140841 0.000238702 0.000354223 5.23263e-05 0.000354223 5.23263e-05 0.000133155 1.21155e-05 0.000133155 1.21155e-05 8.47411e-05 5.29968e-05 8.47411e-05 5.29968e-05 0.000275973 8.98335e-05 0.000275973 8.98335e-05 -0.00167672 0.000163274 0.000238702 -6.74453e-05 5.23263e-05 -8.72819e-05 5.23263e-05 -8.72819e-05 1.21155e-05 -0.000106898 1.21155e-05 -0.000106898 5.29968e-05 -6.60173e-05 5.29968e-05 -6.60173e-05 8.98335e-05 -6.62608e-05 8.98335e-05 -6.62608e-05 0.000163274 0.000261277 -6.74453e-05 -0.00159554 -8.72819e-05 0.000149308 -8.72819e-05 0.000149308 -0.000106898 -9.86774e-05 -0.000106898 -9.86774e-05 -6.60173e-05 -0.000130598 -6.60173e-05 -0.000130598 -6.62608e-05 7.1058e-05 -6.62608e-05 7.1058e-05 0.000261277 -0.00140548 -0.00159554 0.0106796 0.000149308 -0.00141348 0.000149308 -0.00141348 -9.86774e-05 0.000122805 -9.86774e-05 0.000122805 -0.000130598 -8.70136e-05 -0.000130598 -8.70136e-05 7.1058e-05 -0.0017581 7.1058e-05 -0.0017581 -0.00140548 0.0113196 
SCALARS temperature double 1
LOOKUP_TABLE default
0 0 0 0 0 0 0 0 0 0 0 0 0 0 0 0 0 0 0 0 0 0 0 0 0 0 0 0 0 0 0 0 0 0 0 0 0 0 0 0 0 0 0 0 0 0 0 0 0 0 0 0 0 0 0 0 0 0 0 0 0 0 0 0 0 0 0 0 0 0 0 0 0 0 0 0 0 0 0 0 0 0 0 0 0 0 0 0 0 0 0 0 0 0 0 0 0 0 0 0 
SCALARS temperature_error double 1
LOOKUP_TABLE default
0 0 0.587785 0.181636 0.587785 0.181636 0.951057 0.293893 0.951057 0.293893 0.951057 0.293893 0.951057 0.293893 0.587785 0.181636 0.587785 0.181636 1.22465e-16 3.78437e-17 0 0 0.181636 -0.475528 0.181636 -0.475528 0.293893 -0.769421 0.293893 -0.769421 0.293893 -0.769421 0.293893 -0.769421 0.181636 -0.475528 0.181636 -0.475528 3.78437e-17 -9.9076e-17 0 0 -0.475528 -0.475528 -0.475528 -0.475528 -0.769421 -0.769421 -0.769421 -0.769421 -0.769421 -0.769421 -0.769421 -0.769421 -0.475528 -0.475528 -0.475528 -0.475528 -9.9076e-17 -9.9076e-17 0 0 -0.475528 0.181636 -0.475528 0.181636 -0.769421 0.293893 -0.769421 0.293893 -0.769421 0.293893 -0.769421 0.293893 -0.475528 0.181636 -0.475528 0.181636 -9.9076e-17 3.78437e-17 0 0 0.181636 0.587785 0.181636 0.587785 0.293893 0.951057 0.293893 0.951057 0.293893 0.951057 0.293893 0.951057 0.181636 0.587785 0.181636 0.587785 3.78437e-17 1.22465e-16 
