# vtk DataFile Version 3.0
#This file was generated by the deal.II library on 2026/6/6 at 13:03:14
ASCII
DATASET UNSTRUCTURED_GRID

POINTS 100 double
0 0 0
0.2 0 0
0 0.2 0
0.2 0.2 0
0 0.2 0
0.2 0.2 0
0 0.4 0
0.2 0.4 0
0 0.4 0
0.2 0.4 0
0 0.6 0
0.2 0.6 0
0 0.6 0
0.2 0.6 0
0 0.8 0
0.2 0.8 0
0 0.8 0
0.2 0.8 0
0 1 0
0.2 1 0
0.2 0 0
0.4 0 0
0.2 0.2 0
0.4 0.2 0
0.2 0.2 0
0.4 0.2 0
0.2 0.4 0
0.4 0.4 0
0.2 0.4 0
0.4 0.4 0
0.2 0.6 0
0.4 0.6 0
0.2 0.6 0
0.4 0.6 0
0.2 0.8 0
0.4 0.8 0
0.2 0.8 0
0.4 0.8 0
0.2 1 0
0.4 1 0
0.4 0 0
0.6 0 0
0.4 0.2 0
0.6 0.2 0
0.4 0.2 0
0.6 0.2 0
0.4 0.4 0
0.6 0.4 0
0.4 0.4 0
0.6 0.4 0
0.4 0.6 0
0.6 0.6 0
0.4 0.6 0
0.6 0.6 0
0.4 0.8 0
0.6 0.8 0
0.4 0.8 0
0.6 0.8 0
0.4 1 0
0.6 1 0
0.6 0 0
0.8 0 0
0.6 0.2 0
0.8 0.2 0
0.6 0.2 0
0.8 0.2 0
0.6 0.4 0
0.8 0.4 0
0.6 0.4 0
0.8 0.4 0
0.6 0.6 0
0.8 0.6 0
0.6 0.6 0
0.8 0.6 0
0.6 0.8 0
0.8 0.8 0
0.6 0.8 0
0.8 0.8 0
0.6 1 0
0.8 1 0
0.8 0 0
1 0 0
0.8 0.2 0
1 0.2 0
0.8 0.2 0
1 0.2 0
0.8 0.4 0
1 0.4 0
0.8 0.4 0
1 0.4 0
0.8 0.6 0
1 0.6 0
0.8 0.6 0
1 0.6 0
0.8 0.8 0
1 0.8 0
0.8 0.8 0
1 0.8 0
0.8 1 0
1 1 0

CELLS 25 125
4	0	1	3	2
4	4	5	7	6
4	8	9	11	10
4	12	13	15	14
4	16	17	19	18
4	20	21	23	22
4	24	25	27	26
4	28	29	31	30
4	32	33	35	34
4	36	37	39	38
4	40	41	43	42
4	44	45	47	46
4	48	49	51	50
4	52	53	55	54
4	56	57	59	58
4	60	61	63	62
4	64	65	67	66
4	68	69	71	70
4	72	73	75	74
4	76	77	79	78
4	80	81	83	82
4	84	85	87	86
4	88	89	91	90
4	92	93	95	94
4	96	97	99	98

CELL_TYPES 25
 9 9 9 9 9 9 9 9 9 9 9 9 9 9 9 9 9 9 9 9 9 9 9 9 9
POINT_DATA 100
VECTORS velocity double
0 0 0
0.587785 0 0
0 -0.587785 0
0.475524 -0.475524 0
0 -0.587785 0
0.475524 -0.475524 0
0 -0.951057 0
0.181634 -0.769421 0
0 -0.951057 0
0.181634 -0.769421 0
0 -0.951057 0
-0.181637 -0.769418 0
0 -0.951057 0
-0.181637 -0.769418 0
0 -0.587785 0
-0.475526 -0.475526 0
0 -0.587785 0
-0.475526 -0.475526 0
0 -1.22465e-16 0
-0.587785 -9.9076e-17 0
0.587785 0 0
0.951057 0 0
0.475524 -0.475524 0
0.769418 -0.181635 0
0.475524 -0.475524 0
0.769418 -0.181635 0
0.181634 -0.769421 0
0.29389 -0.293893 0
0.181634 -0.769421 0
0.29389 -0.293893 0
-0.181637 -0.769418 0
-0.293894 -0.293891 0
-0.181637 -0.769418 0
-0.293894 -0.293891 0
-0.475526 -0.475526 0
-0.769421 -0.181636 0
-0.475526 -0.475526 0
-0.769421 -0.181636 0
-0.587785 -9.9076e-17 0
-0.951057 -3.78437e-17 0
0.951057 0 0
0.951057 0 0
0.769418 -0.181635 0
0.769421 0.181635 0
0.769418 -0.181635 0
0.769421 0.181635 0
0.29389 -0.293893 0
0.293892 0.293891 0
0.29389 -0.293893 0
0.293892 0.293891 0
-0.293894 -0.293891 0
-0.293892 0.293893 0
-0.293894 -0.293891 0
-0.293892 0.293893 0
-0.769421 -0.181636 0
-0.769418 0.181635 0
-0.769421 -0.181636 0
-0.769418 0.181635 0
-0.951057 -3.78437e-17 0
-0.951057 3.78437e-17 0
0.951057 0 0
0.587785 0 0
0.769421 0.181635 0
0.475524 0.475523 0
0.769421 0.181635 0
0.475524 0.475523 0
0.293892 0.293891 0
0.181633 0.769418 0
0.293892 0.293891 0
0.181633 0.769418 0
-0.293892 0.293893 0
-0.181636 0.769421 0
-0.293892 0.293893 0
-0.181636 0.769421 0
-0.769418 0.181635 0
-0.475525 0.475526 0
-0.769418 0.181635 0
-0.475525 0.475526 0
-0.951057 3.78437e-17 0
-0.587785 9.9076e-17 0
0.587785 0 0
1.22465e-16 0 0
0.475524 0.475523 0
9.9076e-17 0.587785 0
0.475524 0.475523 0
9.9076e-17 0.587785 0
0.181633 0.769418 0
3.78437e-17 0.951057 0
0.181633 0.769418 0
3.78437e-17 0.951057 0
-0.181636 0.769421 0
-3.78437e-17 0.951057 0
-0.181636 0.769421 0
-3.78437e-17 0.951057 0
-0.475525 0.475526 0
-9.9076e-17 0.587785 0
-0.475525 0.475526 0
-9.9076e-17 0.587785 0
-0.587785 9.9076e-17 0
-1.22465e-16 1.22465e-16 0
VECTORS velocity_error double
0 0 0
0 0 0
0 0 0
3.9591e-06 -3.81045e-06 0
0 0 0
3.9591e-06 -3.81045e-06 0
0 0 0
1.52891e-06 -1.38864e-07 0
0 0 0
1.52891e-06 -1.38864e-07 0
0 0 0
9.24374e-07 -2.61176e-06 0
0 0 0
9.24374e-07 -2.61176e-06 0
0 0 0
-2.06742e-06 -2.71244e-06 0
0 0 0
-2.06742e-06 -2.71244e-06 0
0 0 0
0 0 0
0 0 0
0 0 0
3.9591e-06 -3.81045e-06 0
3.14882e-06 -6.35092e-07 0
3.9591e-06 -3.81045e-06 0
3.14882e-06 -6.35092e-07 0
1.52891e-06 -1.38864e-07 0
2.41873e-06 5.03721e-07 0
1.52891e-06 -1.38864e-07 0
2.41873e-06 5.03721e-07 0
9.24374e-07 -2.61176e-06 0
1.12615e-06 -1.79469e-06 0
9.24374e-07 -2.61176e-06 0
1.12615e-06 -1.79469e-06 0
-2.06742e-06 -2.71244e-06 0
2.57142e-07 1.66015e-08 0
-2.06742e-06 -2.71244e-06 0
2.57142e-07 1.66015e-08 0
0 0 0
0 0 0
0 0 0
0 0 0
3.14882e-06 -6.35092e-07 0
1.21931e-07 1.08702e-06 0
3.14882e-06 -6.35092e-07 0
1.21931e-07 1.08702e-06 0
2.41873e-06 5.03721e-07 0
1.59778e-07 1.37088e-06 0
2.41873e-06 5.03721e-07 0
1.59778e-07 1.37088e-06 0
1.12615e-06 -1.79469e-06 0
-7.46837e-07 -4.62658e-07 0
1.12615e-06 -1.79469e-06 0
-7.46837e-07 -4.62658e-07 0
2.57142e-07 1.66015e-08 0
-2.61894e-06 6.81072e-07 0
2.57142e-07 1.66015e-08 0
-2.61894e-06 6.81072e-07 0
0 0 0
0 0 0
0 0 0
0 0 0
1.21931e-07 1.08702e-06 0
4.23664e-06 4.83447e-06 0
1.21931e-07 1.08702e-06 0
4.23664e-06 4.83447e-06 0
1.59778e-07 1.37088e-06 0
2.24054e-06 3.156e-06 0
1.59778e-07 1.37088e-06 0
2.24054e-06 3.156e-06 0
-7.46837e-07 -4.62658e-07 0
4.58489e-07 -2.74077e-07 0
-7.46837e-07 -4.62658e-07 0
4.58489e-07 -2.74077e-07 0
-2.61894e-06 6.81072e-07 0
-3.58781e-06 2.4936e-06 0
-2.61894e-06 6.81072e-07 0
-3.58781e-06 2.4936e-06 0
0 0 0
0 0 0
0 0 0
0 0 0
4.23664e-06 4.83447e-06 0
0 0 0
4.23664e-06 4.83447e-06 0
0 0 0
2.24054e-06 3.156e-06 0
0 0 0
2.24054e-06 3.156e-06 0
0 0 0
4.58489e-07 -2.74077e-07 0
0 0 0
4.58489e-07 -2.74077e-07 0
0 0 0
-3.58781e-06 2.4936e-06 0
0 0 0
-3.58781e-06 2.4936e-06 0
0 0 0
0 0 0
0 0 0
SCALARS pressure double 1
LOOKUP_TABLE default
2.00697e-05 -2.12534e-05 0.587674 0.475444 0.587674 0.475444 0.950882 0.769279 0.950882 0.769279 0.950882 0.769278 0.950882 0.769278 0.587675 0.475444 0.587675 0.475444 1.55427e-05 -2.10359e-05 -2.12534e-05 -4.82288e-06 0.475444 0.181602 0.475444 0.181602 0.769279 0.293838 0.769279 0.293838 0.769278 0.293838 0.769278 0.293838 0.475444 0.181603 0.475444 0.181603 -2.10359e-05 -5.67171e-06 -4.82288e-06 6.04545e-06 0.181602 -0.181603 0.181602 -0.181603 0.293838 -0.293839 0.293838 -0.293839 0.293838 -0.293839 0.293838 -0.293839 0.181603 -0.181603 0.181603 -0.181603 -5.67171e-06 5.94579e-06 6.04545e-06 1.7424e-05 -0.181603 -0.475442 -0.181603 -0.475442 -0.293839 -0.76928 -0.293839 -0.76928 -0.293839 -0.769279 -0.293839 -0.769279 -0.181603 -0.475443 -0.181603 -0.475443 5.94579e-06 1.84537e-05 1.7424e-05 5.86863e-06 -0.475442 -0.587678 -0.475442 -0.587678 -0.76928 -0.950881 -0.76928 -0.950881 -0.769279 -0.950881 -0.769279 -0.950881 -0.475443 -0.587678 -0.475443 -0.587678 1.84537e-05 1.3417e-06 
SCALARS pressure_error double 1
LOOKUP_TABLE default
-2.00661e-05 2.12569e-05 0.000111014 8.39231e-05 0.000111014 8.39231e-05 0.00017487 0.000142228 0.00017487 0.000142228 0.000174607 0.000142414 0.000174607 0.000142414 0.000109993 8.41794e-05 0.000109993 8.41794e-05 -1.55392e-05 2.10394e-05 2.12569e-05 4.82642e-06 8.39231e-05 3.32852e-05 8.39231e-05 3.32852e-05 0.000142228 5.49925e-05 0.000142228 5.49925e-05 0.000142414 5.50213e-05 0.000142414 5.50213e-05 8.41794e-05 3.29676e-05 8.41794e-05 3.29676e-05 2.10394e-05 5.67525e-06 4.82642e-06 -6.04191e-06 3.32852e-05 -3.23179e-05 3.32852e-05 -3.23179e-05 5.49925e-05 -5.37678e-05 5.49925e-05 -5.37678e-05 5.50213e-05 -5.37391e-05 5.50213e-05 -5.37391e-05 3.29676e-05 -3.21598e-05 3.29676e-05 -3.21598e-05 5.67525e-06 -5.94225e-06 -6.04191e-06 -1.74205e-05 -3.23179e-05 -8.58746e-05 -3.23179e-05 -8.58746e-05 -5.37678e-05 -0.000141288 -5.37678e-05 -0.000141288 -5.37391e-05 -0.000141578 -5.37391e-05 -0.000141578 -3.21598e-05 -8.56183e-05 -3.21598e-05 -8.56183e-05 -5.94225e-06 -1.84501e-05 -1.74205e-05 -5.86509e-06 -8.58746e-05 -0.000107186 -8.58746e-05 -0.000107186 -0.000141288 -0.000175723 -0.000141288 -0.000175723 -0.000141578 -0.000175237 -0.000141578 -0.000175237 -8.56183e-05 -0.000107395 -8.56183e-05 -0.000107395 -1.84501e-05 -1.33816e-06 
SCALARS temperature double 1
LOOKUP_TABLE default
0 0 0 0 0 0 0 0 0 0 0 0 0 0 0 0 0 0 0 0 0 0 0 0 0 0 0 0 0 0 0 0 0 0 0 0 0 0 0 0 0 0 0 0 0 0 0 0 0 0 0 0 0 0 0 0 0 0 0 0 0 0 0 0 0 0 0 0 0 0 0 0 0 0 0 0 0 0 0 0 0 0 0 0 0 0 0 0 0 0 0 0 0 0 0 0 0 0 0 0 
SCALARS temperature_error double 1
LOOKUP_TABLE default
0 0 0.587785 0.181636 0.587785 0.181636 0.951057 0.293893 0.951057 0.293893 0.951057 0.293893 0.951057 0.293893 0.587785 0.181636 0.587785 0.181636 1.22465e-16 3.78437e-17 0 0 0.181636 -0.475528 0.181636 -0.475528 0.293893 -0.769421 0.293893 -0.769421 0.293893 -0.769421 0.293893 -0.769421 0.181636 -0.475528 0.181636 -0.475528 3.78437e-17 -9.9076e-17 0 0 -0.475528 -0.475528 -0.475528 -0.475528 -0.769421 -0.769421 -0.769421 -0.769421 -0.769421 -0.769421 -0.769421 -0.769421 -0.475528 -0.475528 -0.475528 -0.475528 -9.9076e-17 -9.9076e-17 0 0 -0.475528 0.181636 -0.475528 0.181636 -0.769421 0.293893 -0.769421 0.293893 -0.769421 0.293893 -0.769421 0.293893 -0.475528 0.181636 -0.475528 0.181636 -9.9076e-17 3.78437e-17 0 0 0.181636 0.587785 0.181636 0.587785 0.293893 0.951057 0.293893 0.951057 0.293893 0.951057 0.293893 0.951057 0.181636 0.587785 0.181636 0.587785 3.78437e-17 1.22465e-16 
