# vtk DataFile Version 3.0
#This file was generated by the deal.II library on 2026/4/1 at 20:11:38
ASCII
DATASET UNSTRUCTURED_GRID

POINTS 672 double
0 0 0
0.214286 0 0
0 0.25 0
0.214286 0.25 0
0 0.25 0
0.214286 0.25 0
0 0.5 0
0.214286 0.5 0
0 0.5 0
0.214286 0.5 0
0 0.75 0
0.214286 0.75 0
0 0.75 0
0.214286 0.75 0
0 1 0
0.214286 1 0
0.214286 0 0
0.428571 0 0
0.214286 0.25 0
0.428571 0.25 0
0.214286 0.25 0
0.428571 0.25 0
0.214286 0.5 0
0.428571 0.5 0
0.214286 0.5 0
0.428571 0.5 0
0.214286 0.75 0
0.428571 0.75 0
0.214286 0.75 0
0.428571 0.75 0
0.214286 1 0
0.428571 1 0
0.428571 0 0
0.642857 0 0
0.428571 0.25 0
0.642857 0.25 0
0.428571 0.25 0
0.642857 0.25 0
0.428571 0.5 0
0.642857 0.5 0
0.428571 0.5 0
0.642857 0.5 0
0.428571 0.75 0
0.642857 0.75 0
0.428571 0.75 0
0.642857 0.75 0
0.428571 1 0
0.642857 1 0
0.642857 0 0
0.857143 0 0
0.642857 0.25 0
0.857143 0.25 0
0.642857 0.25 0
0.857143 0.25 0
0.642857 0.5 0
0.857143 0.5 0
0.642857 0.5 0
0.857143 0.5 0
0.642857 0.75 0
0.857143 0.75 0
0.642857 0.75 0
0.857143 0.75 0
0.642857 1 0
0.857143 1 0
0.857143 0 0
1.07143 0 0
0.857143 0.25 0
1.07143 0.25 0
0.857143 0.25 0
1.07143 0.25 0
0.857143 0.5 0
1.07143 0.5 0
0.857143 0.5 0
1.07143 0.5 0
0.857143 0.75 0
1.07143 0.75 0
0.857143 0.75 0
1.07143 0.75 0
0.857143 1 0
1.07143 1 0
1.07143 0 0
1.28571 0 0
1.07143 0.25 0
1.28571 0.25 0
1.07143 0.25 0
1.28571 0.25 0
1.07143 0.5 0
1.28571 0.5 0
1.07143 0.5 0
1.28571 0.5 0
1.07143 0.75 0
1.28571 0.75 0
1.07143 0.75 0
1.28571 0.75 0
1.07143 1 0
1.28571 1 0
1.28571 0 0
1.5 0 0
1.28571 0.25 0
1.5 0.25 0
1.28571 0.25 0
1.5 0.25 0
1.28571 0.5 0
1.5 0.5 0
1.28571 0.5 0
1.5 0.5 0
1.28571 0.75 0
1.5 0.75 0
1.28571 0.75 0
1.5 0.75 0
1.28571 1 0
1.5 1 0
1.5 0 0
1.71429 0 0
1.5 0.25 0
1.71429 0.25 0
1.5 0.25 0
1.71429 0.25 0
1.5 0.5 0
1.71429 0.5 0
1.5 0.5 0
1.71429 0.5 0
1.5 0.75 0
1.71429 0.75 0
1.5 0.75 0
1.71429 0.75 0
1.5 1 0
1.71429 1 0
1.71429 0 0
1.92857 0 0
1.71429 0.25 0
1.92857 0.25 0
1.71429 0.25 0
1.92857 0.25 0
1.71429 0.5 0
1.92857 0.5 0
1.71429 0.5 0
1.92857 0.5 0
1.71429 0.75 0
1.92857 0.75 0
1.71429 0.75 0
1.92857 0.75 0
1.71429 1 0
1.92857 1 0
1.92857 0 0
2.14286 0 0
1.92857 0.25 0
2.14286 0.25 0
1.92857 0.25 0
2.14286 0.25 0
1.92857 0.5 0
2.14286 0.5 0
1.92857 0.5 0
2.14286 0.5 0
1.92857 0.75 0
2.14286 0.75 0
1.92857 0.75 0
2.14286 0.75 0
1.92857 1 0
2.14286 1 0
2.14286 0 0
2.35714 0 0
2.14286 0.25 0
2.35714 0.25 0
2.14286 0.25 0
2.35714 0.25 0
2.14286 0.5 0
2.35714 0.5 0
2.14286 0.5 0
2.35714 0.5 0
2.14286 0.75 0
2.35714 0.75 0
2.14286 0.75 0
2.35714 0.75 0
2.14286 1 0
2.35714 1 0
2.35714 0 0
2.57143 0 0
2.35714 0.25 0
2.57143 0.25 0
2.35714 0.25 0
2.57143 0.25 0
2.35714 0.5 0
2.57143 0.5 0
2.35714 0.5 0
2.57143 0.5 0
2.35714 0.75 0
2.57143 0.75 0
2.35714 0.75 0
2.57143 0.75 0
2.35714 1 0
2.57143 1 0
2.57143 0 0
2.78571 0 0
2.57143 0.25 0
2.78571 0.25 0
2.57143 0.25 0
2.78571 0.25 0
2.57143 0.5 0
2.78571 0.5 0
2.57143 0.5 0
2.78571 0.5 0
2.57143 0.75 0
2.78571 0.75 0
2.57143 0.75 0
2.78571 0.75 0
2.57143 1 0
2.78571 1 0
2.78571 0 0
3 0 0
2.78571 0.25 0
3 0.25 0
2.78571 0.25 0
3 0.25 0
2.78571 0.5 0
3 0.5 0
2.78571 0.5 0
3 0.5 0
2.78571 0.75 0
3 0.75 0
2.78571 0.75 0
3 0.75 0
2.78571 1 0
3 1 0
0 2 0
0 1.75 0
0.214286 2 0
0.214286 1.75 0
0.214286 2 0
0.214286 1.75 0
0.428571 2 0
0.428571 1.75 0
0.428571 2 0
0.428571 1.75 0
0.642857 2 0
0.642857 1.75 0
0.642857 2 0
0.642857 1.75 0
0.857143 2 0
0.857143 1.75 0
0.857143 2 0
0.857143 1.75 0
1.07143 2 0
1.07143 1.75 0
1.07143 2 0
1.07143 1.75 0
1.28571 2 0
1.28571 1.75 0
1.28571 2 0
1.28571 1.75 0
1.5 2 0
1.5 1.75 0
1.5 2 0
1.5 1.75 0
1.71429 2 0
1.71429 1.75 0
1.71429 2 0
1.71429 1.75 0
1.92857 2 0
1.92857 1.75 0
1.92857 2 0
1.92857 1.75 0
2.14286 2 0
2.14286 1.75 0
2.14286 2 0
2.14286 1.75 0
2.35714 2 0
2.35714 1.75 0
2.35714 2 0
2.35714 1.75 0
2.57143 2 0
2.57143 1.75 0
2.57143 2 0
2.57143 1.75 0
2.78571 2 0
2.78571 1.75 0
2.78571 2 0
2.78571 1.75 0
3 2 0
3 1.75 0
0 1.75 0
0 1.5 0
0.214286 1.75 0
0.214286 1.5 0
0.214286 1.75 0
0.214286 1.5 0
0.428571 1.75 0
0.428571 1.5 0
0.428571 1.75 0
0.428571 1.5 0
0.642857 1.75 0
0.642857 1.5 0
0.642857 1.75 0
0.642857 1.5 0
0.857143 1.75 0
0.857143 1.5 0
0.857143 1.75 0
0.857143 1.5 0
1.07143 1.75 0
1.07143 1.5 0
1.07143 1.75 0
1.07143 1.5 0
1.28571 1.75 0
1.28571 1.5 0
1.28571 1.75 0
1.28571 1.5 0
1.5 1.75 0
1.5 1.5 0
1.5 1.75 0
1.5 1.5 0
1.71429 1.75 0
1.71429 1.5 0
1.71429 1.75 0
1.71429 1.5 0
1.92857 1.75 0
1.92857 1.5 0
1.92857 1.75 0
1.92857 1.5 0
2.14286 1.75 0
2.14286 1.5 0
2.14286 1.75 0
2.14286 1.5 0
2.35714 1.75 0
2.35714 1.5 0
2.35714 1.75 0
2.35714 1.5 0
2.57143 1.75 0
2.57143 1.5 0
2.57143 1.75 0
2.57143 1.5 0
2.78571 1.75 0
2.78571 1.5 0
2.78571 1.75 0
2.78571 1.5 0
3 1.75 0
3 1.5 0
0 1.5 0
0 1.25 0
0.214286 1.5 0
0.214286 1.25 0
0.214286 1.5 0
0.214286 1.25 0
0.428571 1.5 0
0.428571 1.25 0
0.428571 1.5 0
0.428571 1.25 0
0.642857 1.5 0
0.642857 1.25 0
0.642857 1.5 0
0.642857 1.25 0
0.857143 1.5 0
0.857143 1.25 0
0.857143 1.5 0
0.857143 1.25 0
1.07143 1.5 0
1.07143 1.25 0
1.07143 1.5 0
1.07143 1.25 0
1.28571 1.5 0
1.28571 1.25 0
1.28571 1.5 0
1.28571 1.25 0
1.5 1.5 0
1.5 1.25 0
1.5 1.5 0
1.5 1.25 0
1.71429 1.5 0
1.71429 1.25 0
1.71429 1.5 0
1.71429 1.25 0
1.92857 1.5 0
1.92857 1.25 0
1.92857 1.5 0
1.92857 1.25 0
2.14286 1.5 0
2.14286 1.25 0
2.14286 1.5 0
2.14286 1.25 0
2.35714 1.5 0
2.35714 1.25 0
2.35714 1.5 0
2.35714 1.25 0
2.57143 1.5 0
2.57143 1.25 0
2.57143 1.5 0
2.57143 1.25 0
2.78571 1.5 0
2.78571 1.25 0
2.78571 1.5 0
2.78571 1.25 0
3 1.5 0
3 1.25 0
0 1.25 0
0 1 0
0.214286 1.25 0
0.214286 1 0
0.214286 1.25 0
0.214286 1 0
0.428571 1.25 0
0.428571 1 0
0.428571 1.25 0
0.428571 1 0
0.642857 1.25 0
0.642857 1 0
0.642857 1.25 0
0.642857 1 0
0.857143 1.25 0
0.857143 1 0
0.857143 1.25 0
0.857143 1 0
1.07143 1.25 0
1.07143 1 0
1.07143 1.25 0
1.07143 1 0
1.28571 1.25 0
1.28571 1 0
1.28571 1.25 0
1.28571 1 0
1.5 1.25 0
1.5 1 0
1.5 1.25 0
1.5 1 0
1.71429 1.25 0
1.71429 1 0
1.71429 1.25 0
1.71429 1 0
1.92857 1.25 0
1.92857 1 0
1.92857 1.25 0
1.92857 1 0
2.14286 1.25 0
2.14286 1 0
2.14286 1.25 0
2.14286 1 0
2.35714 1.25 0
2.35714 1 0
2.35714 1.25 0
2.35714 1 0
2.57143 1.25 0
2.57143 1 0
2.57143 1.25 0
2.57143 1 0
2.78571 1.25 0
2.78571 1 0
2.78571 1.25 0
2.78571 1 0
3 1.25 0
3 1 0
0 3 0
0 2.75 0
0.214286 3 0
0.214286 2.75 0
0.214286 3 0
0.214286 2.75 0
0.428571 3 0
0.428571 2.75 0
0.428571 3 0
0.428571 2.75 0
0.642857 3 0
0.642857 2.75 0
0.642857 3 0
0.642857 2.75 0
0.857143 3 0
0.857143 2.75 0
0.857143 3 0
0.857143 2.75 0
1.07143 3 0
1.07143 2.75 0
1.07143 3 0
1.07143 2.75 0
1.28571 3 0
1.28571 2.75 0
1.28571 3 0
1.28571 2.75 0
1.5 3 0
1.5 2.75 0
1.5 3 0
1.5 2.75 0
1.71429 3 0
1.71429 2.75 0
1.71429 3 0
1.71429 2.75 0
1.92857 3 0
1.92857 2.75 0
1.92857 3 0
1.92857 2.75 0
2.14286 3 0
2.14286 2.75 0
2.14286 3 0
2.14286 2.75 0
2.35714 3 0
2.35714 2.75 0
2.35714 3 0
2.35714 2.75 0
2.57143 3 0
2.57143 2.75 0
2.57143 3 0
2.57143 2.75 0
2.78571 3 0
2.78571 2.75 0
2.78571 3 0
2.78571 2.75 0
3 3 0
3 2.75 0
0 2.75 0
0 2.5 0
0.214286 2.75 0
0.214286 2.5 0
0.214286 2.75 0
0.214286 2.5 0
0.428571 2.75 0
0.428571 2.5 0
0.428571 2.75 0
0.428571 2.5 0
0.642857 2.75 0
0.642857 2.5 0
0.642857 2.75 0
0.642857 2.5 0
0.857143 2.75 0
0.857143 2.5 0
0.857143 2.75 0
0.857143 2.5 0
1.07143 2.75 0
1.07143 2.5 0
1.07143 2.75 0
1.07143 2.5 0
1.28571 2.75 0
1.28571 2.5 0
1.28571 2.75 0
1.28571 2.5 0
1.5 2.75 0
1.5 2.5 0
1.5 2.75 0
1.5 2.5 0
1.71429 2.75 0
1.71429 2.5 0
1.71429 2.75 0
1.71429 2.5 0
1.92857 2.75 0
1.92857 2.5 0
1.92857 2.75 0
1.92857 2.5 0
2.14286 2.75 0
2.14286 2.5 0
2.14286 2.75 0
2.14286 2.5 0
2.35714 2.75 0
2.35714 2.5 0
2.35714 2.75 0
2.35714 2.5 0
2.57143 2.75 0
2.57143 2.5 0
2.57143 2.75 0
2.57143 2.5 0
2.78571 2.75 0
2.78571 2.5 0
2.78571 2.75 0
2.78571 2.5 0
3 2.75 0
3 2.5 0
0 2.5 0
0 2.25 0
0.214286 2.5 0
0.214286 2.25 0
0.214286 2.5 0
0.214286 2.25 0
0.428571 2.5 0
0.428571 2.25 0
0.428571 2.5 0
0.428571 2.25 0
0.642857 2.5 0
0.642857 2.25 0
0.642857 2.5 0
0.642857 2.25 0
0.857143 2.5 0
0.857143 2.25 0
0.857143 2.5 0
0.857143 2.25 0
1.07143 2.5 0
1.07143 2.25 0
1.07143 2.5 0
1.07143 2.25 0
1.28571 2.5 0
1.28571 2.25 0
1.28571 2.5 0
1.28571 2.25 0
1.5 2.5 0
1.5 2.25 0
1.5 2.5 0
1.5 2.25 0
1.71429 2.5 0
1.71429 2.25 0
1.71429 2.5 0
1.71429 2.25 0
1.92857 2.5 0
1.92857 2.25 0
1.92857 2.5 0
1.92857 2.25 0
2.14286 2.5 0
2.14286 2.25 0
2.14286 2.5 0
2.14286 2.25 0
2.35714 2.5 0
2.35714 2.25 0
2.35714 2.5 0
2.35714 2.25 0
2.57143 2.5 0
2.57143 2.25 0
2.57143 2.5 0
2.57143 2.25 0
2.78571 2.5 0
2.78571 2.25 0
2.78571 2.5 0
2.78571 2.25 0
3 2.5 0
3 2.25 0
0 2.25 0
0 2 0
0.214286 2.25 0
0.214286 2 0
0.214286 2.25 0
0.214286 2 0
0.428571 2.25 0
0.428571 2 0
0.428571 2.25 0
0.428571 2 0
0.642857 2.25 0
0.642857 2 0
0.642857 2.25 0
0.642857 2 0
0.857143 2.25 0
0.857143 2 0
0.857143 2.25 0
0.857143 2 0
1.07143 2.25 0
1.07143 2 0
1.07143 2.25 0
1.07143 2 0
1.28571 2.25 0
1.28571 2 0
1.28571 2.25 0
1.28571 2 0
1.5 2.25 0
1.5 2 0
1.5 2.25 0
1.5 2 0
1.71429 2.25 0
1.71429 2 0
1.71429 2.25 0
1.71429 2 0
1.92857 2.25 0
1.92857 2 0
1.92857 2.25 0
1.92857 2 0
2.14286 2.25 0
2.14286 2 0
2.14286 2.25 0
2.14286 2 0
2.35714 2.25 0
2.35714 2 0
2.35714 2.25 0
2.35714 2 0
2.57143 2.25 0
2.57143 2 0
2.57143 2.25 0
2.57143 2 0
2.78571 2.25 0
2.78571 2 0
2.78571 2.25 0
2.78571 2 0
3 2.25 0
3 2 0

CELLS 168 840
4	0	1	3	2
4	4	5	7	6
4	8	9	11	10
4	12	13	15	14
4	16	17	19	18
4	20	21	23	22
4	24	25	27	26
4	28	29	31	30
4	32	33	35	34
4	36	37	39	38
4	40	41	43	42
4	44	45	47	46
4	48	49	51	50
4	52	53	55	54
4	56	57	59	58
4	60	61	63	62
4	64	65	67	66
4	68	69	71	70
4	72	73	75	74
4	76	77	79	78
4	80	81	83	82
4	84	85	87	86
4	88	89	91	90
4	92	93	95	94
4	96	97	99	98
4	100	101	103	102
4	104	105	107	106
4	108	109	111	110
4	112	113	115	114
4	116	117	119	118
4	120	121	123	122
4	124	125	127	126
4	128	129	131	130
4	132	133	135	134
4	136	137	139	138
4	140	141	143	142
4	144	145	147	146
4	148	149	151	150
4	152	153	155	154
4	156	157	159	158
4	160	161	163	162
4	164	165	167	166
4	168	169	171	170
4	172	173	175	174
4	176	177	179	178
4	180	181	183	182
4	184	185	187	186
4	188	189	191	190
4	192	193	195	194
4	196	197	199	198
4	200	201	203	202
4	204	205	207	206
4	208	209	211	210
4	212	213	215	214
4	216	217	219	218
4	220	221	223	222
4	224	225	227	226
4	228	229	231	230
4	232	233	235	234
4	236	237	239	238
4	240	241	243	242
4	244	245	247	246
4	248	249	251	250
4	252	253	255	254
4	256	257	259	258
4	260	261	263	262
4	264	265	267	266
4	268	269	271	270
4	272	273	275	274
4	276	277	279	278
4	280	281	283	282
4	284	285	287	286
4	288	289	291	290
4	292	293	295	294
4	296	297	299	298
4	300	301	303	302
4	304	305	307	306
4	308	309	311	310
4	312	313	315	314
4	316	317	319	318
4	320	321	323	322
4	324	325	327	326
4	328	329	331	330
4	332	333	335	334
4	336	337	339	338
4	340	341	343	342
4	344	345	347	346
4	348	349	351	350
4	352	353	355	354
4	356	357	359	358
4	360	361	363	362
4	364	365	367	366
4	368	369	371	370
4	372	373	375	374
4	376	377	379	378
4	380	381	383	382
4	384	385	387	386
4	388	389	391	390
4	392	393	395	394
4	396	397	399	398
4	400	401	403	402
4	404	405	407	406
4	408	409	411	410
4	412	413	415	414
4	416	417	419	418
4	420	421	423	422
4	424	425	427	426
4	428	429	431	430
4	432	433	435	434
4	436	437	439	438
4	440	441	443	442
4	444	445	447	446
4	448	449	451	450
4	452	453	455	454
4	456	457	459	458
4	460	461	463	462
4	464	465	467	466
4	468	469	471	470
4	472	473	475	474
4	476	477	479	478
4	480	481	483	482
4	484	485	487	486
4	488	489	491	490
4	492	493	495	494
4	496	497	499	498
4	500	501	503	502
4	504	505	507	506
4	508	509	511	510
4	512	513	515	514
4	516	517	519	518
4	520	521	523	522
4	524	525	527	526
4	528	529	531	530
4	532	533	535	534
4	536	537	539	538
4	540	541	543	542
4	544	545	547	546
4	548	549	551	550
4	552	553	555	554
4	556	557	559	558
4	560	561	563	562
4	564	565	567	566
4	568	569	571	570
4	572	573	575	574
4	576	577	579	578
4	580	581	583	582
4	584	585	587	586
4	588	589	591	590
4	592	593	595	594
4	596	597	599	598
4	600	601	603	602
4	604	605	607	606
4	608	609	611	610
4	612	613	615	614
4	616	617	619	618
4	620	621	623	622
4	624	625	627	626
4	628	629	631	630
4	632	633	635	634
4	636	637	639	638
4	640	641	643	642
4	644	645	647	646
4	648	649	651	650
4	652	653	655	654
4	656	657	659	658
4	660	661	663	662
4	664	665	667	666
4	668	669	671	670

CELL_TYPES 168
 9 9 9 9 9 9 9 9 9 9 9 9 9 9 9 9 9 9 9 9 9 9 9 9 9 9 9 9 9 9 9 9 9 9 9 9 9 9 9 9 9 9 9 9 9 9 9 9 9 9 9 9 9 9 9 9 9 9 9 9 9 9 9 9 9 9 9 9 9 9 9 9 9 9 9 9 9 9 9 9 9 9 9 9 9 9 9 9 9 9 9 9 9 9 9 9 9 9 9 9 9 9 9 9 9 9 9 9 9 9 9 9 9 9 9 9 9 9 9 9 9 9 9 9 9 9 9 9 9 9 9 9 9 9 9 9 9 9 9 9 9 9 9 9 9 9 9 9 9 9 9 9 9 9 9 9 9 9 9 9 9 9 9 9 9 9 9 9
POINT_DATA 672
VECTORS velocity double
0 0 0
0 0 0
0 0 0
0 0 0
0 0 0
0 0 0
0 0 0
0 0 0
0 0 0
0 0 0
0 0 0
0 0 0
0 0 0
0 0 0
0 0 0
0 0 0
0 0 0
0 0 0
0 0 0
0 0 0
0 0 0
0 0 0
0 0 0
0 0 0
0 0 0
0 0 0
0 0 0
0 0 0
0 0 0
0 0 0
0 0 0
0 0 0
0 0 0
0 0 0
0 0 0
0 0 0
0 0 0
0 0 0
0 0 0
0 0 0
0 0 0
0 0 0
0 0 0
0 0 0
0 0 0
0 0 0
0 0 0
0 0 0
0 0 0
0 0 0
0 0 0
0 0 0
0 0 0
0 0 0
0 0 0
0 0 0
0 0 0
0 0 0
0 0 0
0 0 0
0 0 0
0 0 0
0 0 0
0 0 0
0 0 0
0 0 0
0 0 0
0 0 0
0 0 0
0 0 0
0 0 0
0 0 0
0 0 0
0 0 0
0 0 0
0 0 0
0 0 0
0 0 0
0 0 0
0 0 0
0 0 0
0 0 0
0 0 0
0 0 0
0 0 0
0 0 0
0 0 0
0 0 0
0 0 0
0 0 0
0 0 0
0 0 0
0 0 0
0 0 0
0 0 0
0 0 0
0 0 0
0 0 0
0 0 0
0 0 0
0 0 0
0 0 0
0 0 0
0 0 0
0 0 0
0 0 0
0 0 0
0 0 0
0 0 0
0 0 0
0 0 0
0 0 0
0 0 0
0 0 0
0 0 0
0 0 0
0 0 0
0 0 0
0 0 0
0 0 0
0 0 0
0 0 0
0 0 0
0 0 0
0 0 0
0 0 0
0 0 0
0 0 0
0 0 0
0 0 0
0 0 0
0 0 0
0 0 0
0 0 0
0 0 0
0 0 0
0 0 0
0 0 0
0 0 0
0 0 0
0 0 0
0 0 0
0 0 0
0 0 0
0 0 0
0 0 0
0 0 0
0 0 0
0 0 0
0 0 0
0 0 0
0 0 0
0 0 0
0 0 0
0 0 0
0 0 0
0 0 0
0 0 0
0 0 0
0 0 0
0 0 0
0 0 0
0 0 0
0 0 0
0 0 0
0 0 0
0 0 0
0 0 0
0 0 0
0 0 0
0 0 0
0 0 0
0 0 0
0 0 0
0 0 0
0 0 0
0 0 0
0 0 0
0 0 0
0 0 0
0 0 0
0 0 0
0 0 0
0 0 0
0 0 0
0 0 0
0 0 0
0 0 0
0 0 0
0 0 0
0 0 0
0 0 0
0 0 0
0 0 0
0 0 0
0 0 0
0 0 0
0 0 0
0 0 0
0 0 0
0 0 0
0 0 0
0 0 0
0 0 0
0 0 0
0 0 0
0 0 0
0 0 0
0 0 0
0 0 0
0 0 0
0 0 0
0 0 0
0 0 0
0 0 0
0 0 0
0 0 0
0 0 0
0 0 0
0 0 0
0 0 0
0 0 0
0 0 0
0 0 0
0 0 0
0.1875 0 0
0 0 0
0.1875 1.33949e-10 0
0 0 0
0.1875 1.33949e-10 0
0 0 0
0.1875 -1.20737e-10 0
0 0 0
0.1875 -1.20737e-10 0
0 0 0
0.1875 2.95462e-12 0
0 0 0
0.1875 2.95462e-12 0
0 0 0
0.1875 -6.00381e-11 0
0 0 0
0.1875 -6.00381e-11 0
0 0 0
0.1875 -4.53002e-11 0
0 0 0
0.1875 -4.53002e-11 0
0 0 0
0.1875 -3.33231e-11 0
0 0 0
0.1875 -3.33231e-11 0
0 0 0
0.1875 -2.51943e-12 0
0 0 0
0.1875 -2.51943e-12 0
0 0 0
0.1875 3.03741e-11 0
0 0 0
0.1875 3.03741e-11 0
0 0 0
0.1875 5.72061e-11 0
0 0 0
0.1875 5.72061e-11 0
0 0 0
0.1875 6.40812e-11 0
0 0 0
0.1875 6.40812e-11 0
0 0 0
0.1875 4.36182e-11 0
0 0 0
0.1875 4.36182e-11 0
0 0 0
0.1875 -3.26965e-12 0
0 0 0
0.1875 -3.26965e-12 0
0 0 0
0.1875 -5.5445e-11 0
0 0 0
0.1875 -5.5445e-11 0
0 0 0
0.1875 -3.76636e-11 0
0.1875 0 0
0.25 0 0
0.1875 1.33949e-10 0
0.25 7.48367e-18 0
0.1875 1.33949e-10 0
0.25 7.48367e-18 0
0.1875 -1.20737e-10 0
0.25 1.82495e-17 0
0.1875 -1.20737e-10 0
0.25 1.82495e-17 0
0.1875 2.95462e-12 0
0.25 -3.85821e-18 0
0.1875 2.95462e-12 0
0.25 -3.85821e-18 0
0.1875 -6.00381e-11 0
0.25 7.66585e-18 0
0.1875 -6.00381e-11 0
0.25 7.66585e-18 0
0.1875 -4.53002e-11 0
0.25 -1.42432e-17 0
0.1875 -4.53002e-11 0
0.25 -1.42432e-17 0
0.1875 -3.33231e-11 0
0.25 -2.66303e-17 0
0.1875 -3.33231e-11 0
0.25 -2.66303e-17 0
0.1875 -2.51943e-12 0
0.25 4.47241e-17 0
0.1875 -2.51943e-12 0
0.25 4.47241e-17 0
0.1875 3.03741e-11 0
0.25 -2.71886e-18 0
0.1875 3.03741e-11 0
0.25 -2.71886e-18 0
0.1875 5.72061e-11 0
0.25 1.85111e-17 0
0.1875 5.72061e-11 0
0.25 1.85111e-17 0
0.1875 6.40812e-11 0
0.25 -9.31672e-18 0
0.1875 6.40812e-11 0
0.25 -9.31672e-18 0
0.1875 4.36182e-11 0
0.25 6.08966e-17 0
0.1875 4.36182e-11 0
0.25 6.08966e-17 0
0.1875 -3.26965e-12 0
0.25 -1.47495e-17 0
0.1875 -3.26965e-12 0
0.25 -1.47495e-17 0
0.1875 -5.5445e-11 0
0.25 5.90587e-17 0
0.1875 -5.5445e-11 0
0.25 5.90587e-17 0
0.1875 -3.76636e-11 0
0.25 1.34632e-18 0
0.25 0 0
0.1875 0 0
0.25 7.48367e-18 0
0.1875 -1.33949e-10 0
0.25 7.48367e-18 0
0.1875 -1.33949e-10 0
0.25 1.82495e-17 0
0.1875 1.20737e-10 0
0.25 1.82495e-17 0
0.1875 1.20737e-10 0
0.25 -3.85821e-18 0
0.1875 -2.95463e-12 0
0.25 -3.85821e-18 0
0.1875 -2.95463e-12 0
0.25 7.66585e-18 0
0.1875 6.0038e-11 0
0.25 7.66585e-18 0
0.1875 6.0038e-11 0
0.25 -1.42432e-17 0
0.1875 4.53002e-11 0
0.25 -1.42432e-17 0
0.1875 4.53002e-11 0
0.25 -2.66303e-17 0
0.1875 3.33231e-11 0
0.25 -2.66303e-17 0
0.1875 3.33231e-11 0
0.25 4.47241e-17 0
0.1875 2.51943e-12 0
0.25 4.47241e-17 0
0.1875 2.51943e-12 0
0.25 -2.71886e-18 0
0.1875 -3.03741e-11 0
0.25 -2.71886e-18 0
0.1875 -3.03741e-11 0
0.25 1.85111e-17 0
0.1875 -5.72061e-11 0
0.25 1.85111e-17 0
0.1875 -5.72061e-11 0
0.25 -9.31672e-18 0
0.1875 -6.40811e-11 0
0.25 -9.31672e-18 0
0.1875 -6.40811e-11 0
0.25 6.08966e-17 0
0.1875 -4.36181e-11 0
0.25 6.08966e-17 0
0.1875 -4.36181e-11 0
0.25 -1.47495e-17 0
0.1875 3.26969e-12 0
0.25 -1.47495e-17 0
0.1875 3.26969e-12 0
0.25 5.90587e-17 0
0.1875 5.5445e-11 0
0.25 5.90587e-17 0
0.1875 5.5445e-11 0
0.25 1.34632e-18 0
0.1875 3.76637e-11 0
0.1875 0 0
0 0 0
0.1875 -1.33949e-10 0
0 0 0
0.1875 -1.33949e-10 0
0 0 0
0.1875 1.20737e-10 0
0 0 0
0.1875 1.20737e-10 0
0 0 0
0.1875 -2.95463e-12 0
0 0 0
0.1875 -2.95463e-12 0
0 0 0
0.1875 6.0038e-11 0
0 0 0
0.1875 6.0038e-11 0
0 0 0
0.1875 4.53002e-11 0
0 0 0
0.1875 4.53002e-11 0
0 0 0
0.1875 3.33231e-11 0
0 0 0
0.1875 3.33231e-11 0
0 0 0
0.1875 2.51943e-12 0
0 0 0
0.1875 2.51943e-12 0
0 0 0
0.1875 -3.03741e-11 0
0 0 0
0.1875 -3.03741e-11 0
0 0 0
0.1875 -5.72061e-11 0
0 0 0
0.1875 -5.72061e-11 0
0 0 0
0.1875 -6.40811e-11 0
0 0 0
0.1875 -6.40811e-11 0
0 0 0
0.1875 -4.36181e-11 0
0 0 0
0.1875 -4.36181e-11 0
0 0 0
0.1875 3.26969e-12 0
0 0 0
0.1875 3.26969e-12 0
0 0 0
0.1875 5.5445e-11 0
0 0 0
0.1875 5.5445e-11 0
0 0 0
0.1875 3.76637e-11 0
0 0 0
0 0 0
0 0 0
0 0 0
0 0 0
0 0 0
0 0 0
0 0 0
0 0 0
0 0 0
0 0 0
0 0 0
0 0 0
0 0 0
0 0 0
0 0 0
0 0 0
0 0 0
0 0 0
0 0 0
0 0 0
0 0 0
0 0 0
0 0 0
0 0 0
0 0 0
0 0 0
0 0 0
0 0 0
0 0 0
0 0 0
0 0 0
0 0 0
0 0 0
0 0 0
0 0 0
0 0 0
0 0 0
0 0 0
0 0 0
0 0 0
0 0 0
0 0 0
0 0 0
0 0 0
0 0 0
0 0 0
0 0 0
0 0 0
0 0 0
0 0 0
0 0 0
0 0 0
0 0 0
0 0 0
0 0 0
0 0 0
0 0 0
0 0 0
0 0 0
0 0 0
0 0 0
0 0 0
0 0 0
0 0 0
0 0 0
0 0 0
0 0 0
0 0 0
0 0 0
0 0 0
0 0 0
0 0 0
0 0 0
0 0 0
0 0 0
0 0 0
0 0 0
0 0 0
0 0 0
0 0 0
0 0 0
0 0 0
0 0 0
0 0 0
0 0 0
0 0 0
0 0 0
0 0 0
0 0 0
0 0 0
0 0 0
0 0 0
0 0 0
0 0 0
0 0 0
0 0 0
0 0 0
0 0 0
0 0 0
0 0 0
0 0 0
0 0 0
0 0 0
0 0 0
0 0 0
0 0 0
0 0 0
0 0 0
0 0 0
0 0 0
0 0 0
0 0 0
0 0 0
0 0 0
0 0 0
0 0 0
0 0 0
0 0 0
0 0 0
0 0 0
0 0 0
0 0 0
0 0 0
0 0 0
0 0 0
0 0 0
0 0 0
0 0 0
0 0 0
0 0 0
0 0 0
0 0 0
0 0 0
0 0 0
0 0 0
0 0 0
0 0 0
0 0 0
0 0 0
0 0 0
0 0 0
0 0 0
0 0 0
0 0 0
0 0 0
0 0 0
0 0 0
0 0 0
0 0 0
0 0 0
0 0 0
0 0 0
0 0 0
0 0 0
0 0 0
0 0 0
0 0 0
0 0 0
0 0 0
0 0 0
0 0 0
0 0 0
0 0 0
0 0 0
0 0 0
0 0 0
0 0 0
0 0 0
0 0 0
0 0 0
0 0 0
0 0 0
0 0 0
0 0 0
0 0 0
0 0 0
0 0 0
0 0 0
0 0 0
0 0 0
0 0 0
0 0 0
0 0 0
0 0 0
0 0 0
0 0 0
0 0 0
0 0 0
0 0 0
0 0 0
0 0 0
0 0 0
0 0 0
0 0 0
0 0 0
0 0 0
0 0 0
0 0 0
0 0 0
0 0 0
0 0 0
0 0 0
0 0 0
0 0 0
0 0 0
0 0 0
0 0 0
0 0 0
0 0 0
0 0 0
0 0 0
0 0 0
0 0 0
0 0 0
0 0 0
0 0 0
0 0 0
0 0 0
0 0 0
0 0 0
0 0 0
0 0 0
0 0 0
0 0 0
SCALARS pressure double 1
LOOKUP_TABLE default
0 0 0 0 0 0 0 0 0 0 0 0 0 0 0 0 0 0 0 0 0 0 0 0 0 0 0 0 0 0 0 0 0 0 0 0 0 0 0 0 0 0 0 0 0 0 0 0 0 0 0 0 0 0 0 0 0 0 0 0 0 0 0 0 0 0 0 0 0 0 0 0 0 0 0 0 0 0 0 0 0 0 0 0 0 0 0 0 0 0 0 0 0 0 0 0 0 0 0 0 0 0 0 0 0 0 0 0 0 0 0 0 0 0 0 0 0 0 0 0 0 0 0 0 0 0 0 0 0 0 0 0 0 0 0 0 0 0 0 0 0 0 0 0 0 0 0 0 0 0 0 0 0 0 0 0 0 0 0 0 0 0 0 0 0 0 0 0 0 0 0 0 0 0 0 0 0 0 0 0 0 0 0 0 0 0 0 0 0 0 0 0 0 0 0 0 0 0 0 0 0 0 0 0 0 0 0 0 0 0 0 0 0 0 0 0 0 0 0 0 0 0 0 0 0.000800042 0.000799985 0.000742843 0.00074286 0.000742843 0.00074286 0.000685719 0.000685714 0.000685719 0.000685714 0.000628571 0.000628573 0.000628571 0.000628573 0.00057143 0.000571429 0.00057143 0.000571429 0.000514286 0.000514286 0.000514286 0.000514286 0.000457143 0.000457143 0.000457143 0.000457143 0.0004 0.0004 0.0004 0.0004 0.000342856 0.000342856 0.000342856 0.000342856 0.000285713 0.000285713 0.000285713 0.000285713 0.000228571 0.000228571 0.000228571 0.000228571 0.000171429 0.000171429 0.000171429 0.000171429 0.000114287 0.000114287 0.000114287 0.000114287 5.71445e-05 5.71442e-05 5.71445e-05 5.71442e-05 5.93603e-10 1.29703e-10 0.000799985 0.000800004 0.00074286 0.000742855 0.00074286 0.000742855 0.000685714 0.000685715 0.000685714 0.000685715 0.000628573 0.000628572 0.000628573 0.000628572 0.000571429 0.00057143 0.000571429 0.00057143 0.000514286 0.000514286 0.000514286 0.000514286 0.000457143 0.000457143 0.000457143 0.000457143 0.0004 0.0004 0.0004 0.0004 0.000342856 0.000342856 0.000342856 0.000342856 0.000285713 0.000285713 0.000285713 0.000285713 0.000228571 0.000228571 0.000228571 0.000228571 0.000171429 0.000171429 0.000171429 0.000171429 0.000114287 0.000114287 0.000114287 0.000114287 5.71442e-05 5.71443e-05 5.71442e-05 5.71443e-05 1.29703e-10 2.33544e-10 0.000800004 0.000799985 0.000742855 0.00074286 0.000742855 0.00074286 0.000685715 0.000685714 0.000685715 0.000685714 0.000628572 0.000628573 0.000628572 0.000628573 0.00057143 0.000571429 0.00057143 0.000571429 0.000514286 0.000514286 0.000514286 0.000514286 0.000457143 0.000457143 0.000457143 0.000457143 0.0004 0.0004 0.0004 0.0004 0.000342856 0.000342856 0.000342856 0.000342856 0.000285713 0.000285713 0.000285713 0.000285713 0.000228571 0.000228571 0.000228571 0.000228571 0.000171429 0.000171429 0.000171429 0.000171429 0.000114287 0.000114287 0.000114287 0.000114287 5.71443e-05 5.71442e-05 5.71443e-05 5.71442e-05 2.33544e-10 1.29703e-10 0.000799985 0.000800042 0.00074286 0.000742843 0.00074286 0.000742843 0.000685714 0.000685719 0.000685714 0.000685719 0.000628573 0.000628571 0.000628573 0.000628571 0.000571429 0.00057143 0.000571429 0.00057143 0.000514286 0.000514286 0.000514286 0.000514286 0.000457143 0.000457143 0.000457143 0.000457143 0.0004 0.0004 0.0004 0.0004 0.000342856 0.000342856 0.000342856 0.000342856 0.000285713 0.000285713 0.000285713 0.000285713 0.000228571 0.000228571 0.000228571 0.000228571 0.000171429 0.000171429 0.000171429 0.000171429 0.000114287 0.000114287 0.000114287 0.000114287 5.71442e-05 5.71445e-05 5.71442e-05 5.71445e-05 1.29703e-10 5.93603e-10 0 0 0 0 0 0 0 0 0 0 0 0 0 0 0 0 0 0 0 0 0 0 0 0 0 0 0 0 0 0 0 0 0 0 0 0 0 0 0 0 0 0 0 0 0 0 0 0 0 0 0 0 0 0 0 0 0 0 0 0 0 0 0 0 0 0 0 0 0 0 0 0 0 0 0 0 0 0 0 0 0 0 0 0 0 0 0 0 0 0 0 0 0 0 0 0 0 0 0 0 0 0 0 0 0 0 0 0 0 0 0 0 0 0 0 0 0 0 0 0 0 0 0 0 0 0 0 0 0 0 0 0 0 0 0 0 0 0 0 0 0 0 0 0 0 0 0 0 0 0 0 0 0 0 0 0 0 0 0 0 0 0 0 0 0 0 0 0 0 0 0 0 0 0 0 0 0 0 0 0 0 0 0 0 0 0 0 0 0 0 0 0 0 0 0 0 0 0 0 0 0 0 0 0 0 0 0 0 0 0 0 0 0 0 0 0 0 0 0 0 0 0 0 0 
SCALARS temperature double 1
LOOKUP_TABLE default
0 0 0.00223511 0.00224686 0.00223511 0.00224686 0.00438979 0.0045171 0.00438979 0.0045171 0.00580075 0.00682144 0.00580075 0.00682144 0 0.0104463 0 0 0.00224686 0.00223422 0.00224686 0.00223422 0.0045171 0.00461384 0.0045171 0.00461384 0.00682144 0.00749577 0.00682144 0.00749577 0.0104463 0.0120967 0 0 0.00223422 0.00212933 0.00223422 0.00212933 0.00461384 0.00441286 0.00461384 0.00441286 0.00749577 0.00710767 0.00749577 0.00710767 0.0120967 0.0105865 0 0 0.00212933 0.00192172 0.00212933 0.00192172 0.00441286 0.003932 0.00441286 0.003932 0.00710767 0.00611491 0.00710767 0.00611491 0.0105865 0.00842847 0 0 0.00192172 0.00165016 0.00192172 0.00165016 0.003932 0.00331662 0.003932 0.00331662 0.00611491 0.00497552 0.00611491 0.00497552 0.00842847 0.00647437 0 0 0.00165016 0.00136331 0.00165016 0.00136331 0.00331662 0.00269442 0.00331662 0.00269442 0.00497552 0.00392468 0.00497552 0.00392468 0.00647437 0.00490439 0 0 0.00136331 0.00109647 0.00136331 0.00109647 0.00269442 0.00213758 0.00269442 0.00213758 0.00392468 0.00304498 0.00392468 0.00304498 0.00490439 0.00369937 0 0 0.00109647 0.000867829 0.00109647 0.000867829 0.00213758 0.00167426 0.00213758 0.00167426 0.00304498 0.00234648 0.00304498 0.00234648 0.00369937 0.0027952 0 0 0.000867829 0.000683015 0.000867829 0.000683015 0.00167426 0.00130756 0.00167426 0.00130756 0.00234648 0.00181114 0.00234648 0.00181114 0.0027952 0.0021278 0 0 0.000683015 0.00054068 0.000683015 0.00054068 0.00130756 0.00102926 0.00130756 0.00102926 0.00181114 0.00141365 0.00181114 0.00141365 0.0021278 0.00164449 0 0 0.00054068 0.000436624 0.00054068 0.000436624 0.00102926 0.000827812 0.00102926 0.000827812 0.00141365 0.00113008 0.00141365 0.00113008 0.00164449 0.00130527 0 0 0.000436624 0.000366209 0.000436624 0.000366209 0.000827812 0.000692355 0.000827812 0.000692355 0.00113008 0.000941152 0.00113008 0.000941152 0.00130527 0.00108153 0 0 0.000366209 0.000325608 0.000366209 0.000325608 0.000692355 0.000614538 0.000692355 0.000614538 0.000941152 0.000833194 0.000941152 0.000833194 0.00108153 0.000954372 0 0 0.000325608 0.00031236 0.000325608 0.00031236 0.000614538 0.000589187 0.000614538 0.000589187 0.000833194 0.000798103 0.000833194 0.000798103 0.000954372 0.00091312 0 0 0.0104457 0.0668169 0.0104457 0.0668169 0.012096 0.0463556 0.012096 0.0463556 0.0105858 0.0292785 0.0105858 0.0292785 0.00842787 0.0186719 0.00842787 0.0186719 0.006474 0.0122423 0.006474 0.0122423 0.00490435 0.00826434 0.00490435 0.00826434 0.0036997 0.00573035 0.0036997 0.00573035 0.00279594 0.0040715 0.00279594 0.0040715 0.00212895 0.00296304 0.00212895 0.00296304 0.00164602 0.00221534 0.00164602 0.00221534 0.00130711 0.00171542 0.00130711 0.00171542 0.00108358 0.00139549 0.00108358 0.00139549 0.000956503 0.00121618 0.000956503 0.00121618 0.00091525 0.00115801 0 1 0.0668169 0.173735 0.0668169 0.173735 0.0463556 0.0698927 0.0463556 0.0698927 0.0292785 0.0383043 0.0292785 0.0383043 0.0186719 0.0230787 0.0186719 0.0230787 0.0122423 0.0146128 0.0122423 0.0146128 0.00826434 0.00960955 0.00826434 0.00960955 0.00573035 0.00652693 0.00573035 0.00652693 0.0040715 0.00456279 0.0040715 0.00456279 0.00296304 0.00327882 0.00296304 0.00327882 0.00221534 0.00242742 0.00221534 0.00242742 0.00171542 0.00186521 0.00171542 0.00186521 0.00139549 0.00150829 0.00139549 0.00150829 0.00121618 0.00130902 0.00121618 0.00130902 0.00115801 0.00124433 1 0 0.173735 0.0668171 0.173735 0.0668171 0.0698927 0.0463559 0.0698927 0.0463559 0.0383043 0.0292789 0.0383043 0.0292789 0.0230787 0.0186722 0.0230787 0.0186722 0.0146128 0.0122425 0.0146128 0.0122425 0.00960955 0.00826438 0.00960955 0.00826438 0.00652693 0.00573017 0.00652693 0.00573017 0.00456279 0.0040711 0.00456279 0.0040711 0.00327882 0.00296241 0.00327882 0.00296241 0.00242742 0.0022145 0.00242742 0.0022145 0.00186521 0.0017144 0.00186521 0.0017144 0.00150829 0.00139435 0.00150829 0.00139435 0.00130902 0.00121499 0.00130902 0.00121499 0.00124433 0.0011568 0 0 0.0668171 0.0104463 0.0668171 0.0104463 0.0463559 0.0120967 0.0463559 0.0120967 0.0292789 0.0105865 0.0292789 0.0105865 0.0186722 0.00842847 0.0186722 0.00842847 0.0122425 0.00647437 0.0122425 0.00647437 0.00826438 0.00490439 0.00826438 0.00490439 0.00573017 0.00369937 0.00573017 0.00369937 0.0040711 0.0027952 0.0040711 0.0027952 0.00296241 0.0021278 0.00296241 0.0021278 0.0022145 0.00164449 0.0022145 0.00164449 0.0017144 0.00130527 0.0017144 0.00130527 0.00139435 0.00108153 0.00139435 0.00108153 0.00121499 0.000954372 0.00121499 0.000954372 0.0011568 0.00091312 0 0.00223471 0 0.00224646 0 0.00224646 0 0.00223383 0 0.00223383 0 0.00212898 0 0.00212898 0 0.00192144 0 0.00192144 0 0.00165 0 0.00165 0 0.00136329 0 0.00136329 0 0.00109662 0 0.00109662 0 0.000868157 0 0.000868157 0 0.000683523 0 0.000683523 0 0.000541357 0 0.000541357 0 0.00043744 0 0.00043744 0 0.000367121 0 0.000367121 0 0.000326561 0 0.000326561 0 0.000313316 0.00223471 0.00438913 0.00224646 0.00451643 0.00224646 0.00451643 0.00223383 0.00461317 0.00223383 0.00461317 0.00212898 0.00441224 0.00212898 0.00441224 0.00192144 0.0039315 0.00192144 0.0039315 0.00165 0.00331632 0.00165 0.00331632 0.00136329 0.00269439 0.00136329 0.00269439 0.00109662 0.00213784 0.00109662 0.00213784 0.000868157 0.00167484 0.000868157 0.00167484 0.000683523 0.00130847 0.000683523 0.00130847 0.000541357 0.00103047 0.000541357 0.00103047 0.00043744 0.00082927 0.00043744 0.00082927 0.000367121 0.000693985 0.000367121 0.000693985 0.000326561 0.000616236 0.000326561 0.000616236 0.000313316 0.000590893 0.00438913 0.00580008 0.00451643 0.0068207 0.00451643 0.0068207 0.00461317 0.00749498 0.00461317 0.00749498 0.00441224 0.00710692 0.00441224 0.00710692 0.0039315 0.00611431 0.0039315 0.00611431 0.00331632 0.00497516 0.00331632 0.00497516 0.00269439 0.00392464 0.00269439 0.00392464 0.00213784 0.00304531 0.00213784 0.00304531 0.00167484 0.0023472 0.00167484 0.0023472 0.00130847 0.00181227 0.00130847 0.00181227 0.00103047 0.00141515 0.00103047 0.00141515 0.00082927 0.00113189 0.00082927 0.00113189 0.000693985 0.000943169 0.000693985 0.000943169 0.000616236 0.000835297 0.000616236 0.000835297 0.000590893 0.000800215 0.00580008 0 0.0068207 0.0104457 0.0068207 0.0104457 0.00749498 0.012096 0.00749498 0.012096 0.00710692 0.0105858 0.00710692 0.0105858 0.00611431 0.00842787 0.00611431 0.00842787 0.00497516 0.006474 0.00497516 0.006474 0.00392464 0.00490435 0.00392464 0.00490435 0.00304531 0.0036997 0.00304531 0.0036997 0.0023472 0.00279594 0.0023472 0.00279594 0.00181227 0.00212895 0.00181227 0.00212895 0.00141515 0.00164602 0.00141515 0.00164602 0.00113189 0.00130711 0.00113189 0.00130711 0.000943169 0.00108358 0.000943169 0.00108358 0.000835297 0.000956503 0.000835297 0.000956503 0.000800215 0.00091525 
