# vtk DataFile Version 3.0
#This file was generated by the deal.II library on 2026/6/6 at 12:41:59
ASCII
DATASET UNSTRUCTURED_GRID

POINTS 1600 double
0 0 0
0.05 0 0
0 0.05 0
0.05 0.05 0
0.05 0 0
0.1 0 0
0.05 0.05 0
0.1 0.05 0
0 0.05 0
0.05 0.05 0
0 0.1 0
0.05 0.1 0
0.05 0.05 0
0.1 0.05 0
0.05 0.1 0
0.1 0.1 0
0.1 0 0
0.15 0 0
0.1 0.05 0
0.15 0.05 0
0.15 0 0
0.2 0 0
0.15 0.05 0
0.2 0.05 0
0.1 0.05 0
0.15 0.05 0
0.1 0.1 0
0.15 0.1 0
0.15 0.05 0
0.2 0.05 0
0.15 0.1 0
0.2 0.1 0
0 0.1 0
0.05 0.1 0
0 0.15 0
0.05 0.15 0
0.05 0.1 0
0.1 0.1 0
0.05 0.15 0
0.1 0.15 0
0 0.15 0
0.05 0.15 0
0 0.2 0
0.05 0.2 0
0.05 0.15 0
0.1 0.15 0
0.05 0.2 0
0.1 0.2 0
0.1 0.1 0
0.15 0.1 0
0.1 0.15 0
0.15 0.15 0
0.15 0.1 0
0.2 0.1 0
0.15 0.15 0
0.2 0.15 0
0.1 0.15 0
0.15 0.15 0
0.1 0.2 0
0.15 0.2 0
0.15 0.15 0
0.2 0.15 0
0.15 0.2 0
0.2 0.2 0
0 0.2 0
0.05 0.2 0
0 0.25 0
0.05 0.25 0
0.05 0.2 0
0.1 0.2 0
0.05 0.25 0
0.1 0.25 0
0 0.25 0
0.05 0.25 0
0 0.3 0
0.05 0.3 0
0.05 0.25 0
0.1 0.25 0
0.05 0.3 0
0.1 0.3 0
0.1 0.2 0
0.15 0.2 0
0.1 0.25 0
0.15 0.25 0
0.15 0.2 0
0.2 0.2 0
0.15 0.25 0
0.2 0.25 0
0.1 0.25 0
0.15 0.25 0
0.1 0.3 0
0.15 0.3 0
0.15 0.25 0
0.2 0.25 0
0.15 0.3 0
0.2 0.3 0
0 0.3 0
0.05 0.3 0
0 0.35 0
0.05 0.35 0
0.05 0.3 0
0.1 0.3 0
0.05 0.35 0
0.1 0.35 0
0 0.35 0
0.05 0.35 0
0 0.4 0
0.05 0.4 0
0.05 0.35 0
0.1 0.35 0
0.05 0.4 0
0.1 0.4 0
0.1 0.3 0
0.15 0.3 0
0.1 0.35 0
0.15 0.35 0
0.15 0.3 0
0.2 0.3 0
0.15 0.35 0
0.2 0.35 0
0.1 0.35 0
0.15 0.35 0
0.1 0.4 0
0.15 0.4 0
0.15 0.35 0
0.2 0.35 0
0.15 0.4 0
0.2 0.4 0
0 0.4 0
0.05 0.4 0
0 0.45 0
0.05 0.45 0
0.05 0.4 0
0.1 0.4 0
0.05 0.45 0
0.1 0.45 0
0 0.45 0
0.05 0.45 0
0 0.5 0
0.05 0.5 0
0.05 0.45 0
0.1 0.45 0
0.05 0.5 0
0.1 0.5 0
0.1 0.4 0
0.15 0.4 0
0.1 0.45 0
0.15 0.45 0
0.15 0.4 0
0.2 0.4 0
0.15 0.45 0
0.2 0.45 0
0.1 0.45 0
0.15 0.45 0
0.1 0.5 0
0.15 0.5 0
0.15 0.45 0
0.2 0.45 0
0.15 0.5 0
0.2 0.5 0
0 0.5 0
0.05 0.5 0
0 0.55 0
0.05 0.55 0
0.05 0.5 0
0.1 0.5 0
0.05 0.55 0
0.1 0.55 0
0 0.55 0
0.05 0.55 0
0 0.6 0
0.05 0.6 0
0.05 0.55 0
0.1 0.55 0
0.05 0.6 0
0.1 0.6 0
0.1 0.5 0
0.15 0.5 0
0.1 0.55 0
0.15 0.55 0
0.15 0.5 0
0.2 0.5 0
0.15 0.55 0
0.2 0.55 0
0.1 0.55 0
0.15 0.55 0
0.1 0.6 0
0.15 0.6 0
0.15 0.55 0
0.2 0.55 0
0.15 0.6 0
0.2 0.6 0
0 0.6 0
0.05 0.6 0
0 0.65 0
0.05 0.65 0
0.05 0.6 0
0.1 0.6 0
0.05 0.65 0
0.1 0.65 0
0 0.65 0
0.05 0.65 0
0 0.7 0
0.05 0.7 0
0.05 0.65 0
0.1 0.65 0
0.05 0.7 0
0.1 0.7 0
0.1 0.6 0
0.15 0.6 0
0.1 0.65 0
0.15 0.65 0
0.15 0.6 0
0.2 0.6 0
0.15 0.65 0
0.2 0.65 0
0.1 0.65 0
0.15 0.65 0
0.1 0.7 0
0.15 0.7 0
0.15 0.65 0
0.2 0.65 0
0.15 0.7 0
0.2 0.7 0
0 0.7 0
0.05 0.7 0
0 0.75 0
0.05 0.75 0
0.05 0.7 0
0.1 0.7 0
0.05 0.75 0
0.1 0.75 0
0 0.75 0
0.05 0.75 0
0 0.8 0
0.05 0.8 0
0.05 0.75 0
0.1 0.75 0
0.05 0.8 0
0.1 0.8 0
0.1 0.7 0
0.15 0.7 0
0.1 0.75 0
0.15 0.75 0
0.15 0.7 0
0.2 0.7 0
0.15 0.75 0
0.2 0.75 0
0.1 0.75 0
0.15 0.75 0
0.1 0.8 0
0.15 0.8 0
0.15 0.75 0
0.2 0.75 0
0.15 0.8 0
0.2 0.8 0
0 0.8 0
0.05 0.8 0
0 0.85 0
0.05 0.85 0
0.05 0.8 0
0.1 0.8 0
0.05 0.85 0
0.1 0.85 0
0 0.85 0
0.05 0.85 0
0 0.9 0
0.05 0.9 0
0.05 0.85 0
0.1 0.85 0
0.05 0.9 0
0.1 0.9 0
0.1 0.8 0
0.15 0.8 0
0.1 0.85 0
0.15 0.85 0
0.15 0.8 0
0.2 0.8 0
0.15 0.85 0
0.2 0.85 0
0.1 0.85 0
0.15 0.85 0
0.1 0.9 0
0.15 0.9 0
0.15 0.85 0
0.2 0.85 0
0.15 0.9 0
0.2 0.9 0
0 0.9 0
0.05 0.9 0
0 0.95 0
0.05 0.95 0
0.05 0.9 0
0.1 0.9 0
0.05 0.95 0
0.1 0.95 0
0 0.95 0
0.05 0.95 0
0 1 0
0.05 1 0
0.05 0.95 0
0.1 0.95 0
0.05 1 0
0.1 1 0
0.1 0.9 0
0.15 0.9 0
0.1 0.95 0
0.15 0.95 0
0.15 0.9 0
0.2 0.9 0
0.15 0.95 0
0.2 0.95 0
0.1 0.95 0
0.15 0.95 0
0.1 1 0
0.15 1 0
0.15 0.95 0
0.2 0.95 0
0.15 1 0
0.2 1 0
0.2 0 0
0.25 0 0
0.2 0.05 0
0.25 0.05 0
0.25 0 0
0.3 0 0
0.25 0.05 0
0.3 0.05 0
0.2 0.05 0
0.25 0.05 0
0.2 0.1 0
0.25 0.1 0
0.25 0.05 0
0.3 0.05 0
0.25 0.1 0
0.3 0.1 0
0.3 0 0
0.35 0 0
0.3 0.05 0
0.35 0.05 0
0.35 0 0
0.4 0 0
0.35 0.05 0
0.4 0.05 0
0.3 0.05 0
0.35 0.05 0
0.3 0.1 0
0.35 0.1 0
0.35 0.05 0
0.4 0.05 0
0.35 0.1 0
0.4 0.1 0
0.2 0.1 0
0.25 0.1 0
0.2 0.15 0
0.25 0.15 0
0.25 0.1 0
0.3 0.1 0
0.25 0.15 0
0.3 0.15 0
0.2 0.15 0
0.25 0.15 0
0.2 0.2 0
0.25 0.2 0
0.25 0.15 0
0.3 0.15 0
0.25 0.2 0
0.3 0.2 0
0.3 0.1 0
0.35 0.1 0
0.3 0.15 0
0.35 0.15 0
0.35 0.1 0
0.4 0.1 0
0.35 0.15 0
0.4 0.15 0
0.3 0.15 0
0.35 0.15 0
0.3 0.2 0
0.35 0.2 0
0.35 0.15 0
0.4 0.15 0
0.35 0.2 0
0.4 0.2 0
0.2 0.2 0
0.25 0.2 0
0.2 0.25 0
0.25 0.25 0
0.25 0.2 0
0.3 0.2 0
0.25 0.25 0
0.3 0.25 0
0.2 0.25 0
0.25 0.25 0
0.2 0.3 0
0.25 0.3 0
0.25 0.25 0
0.3 0.25 0
0.25 0.3 0
0.3 0.3 0
0.3 0.2 0
0.35 0.2 0
0.3 0.25 0
0.35 0.25 0
0.35 0.2 0
0.4 0.2 0
0.35 0.25 0
0.4 0.25 0
0.3 0.25 0
0.35 0.25 0
0.3 0.3 0
0.35 0.3 0
0.35 0.25 0
0.4 0.25 0
0.35 0.3 0
0.4 0.3 0
0.2 0.3 0
0.25 0.3 0
0.2 0.35 0
0.25 0.35 0
0.25 0.3 0
0.3 0.3 0
0.25 0.35 0
0.3 0.35 0
0.2 0.35 0
0.25 0.35 0
0.2 0.4 0
0.25 0.4 0
0.25 0.35 0
0.3 0.35 0
0.25 0.4 0
0.3 0.4 0
0.3 0.3 0
0.35 0.3 0
0.3 0.35 0
0.35 0.35 0
0.35 0.3 0
0.4 0.3 0
0.35 0.35 0
0.4 0.35 0
0.3 0.35 0
0.35 0.35 0
0.3 0.4 0
0.35 0.4 0
0.35 0.35 0
0.4 0.35 0
0.35 0.4 0
0.4 0.4 0
0.2 0.4 0
0.25 0.4 0
0.2 0.45 0
0.25 0.45 0
0.25 0.4 0
0.3 0.4 0
0.25 0.45 0
0.3 0.45 0
0.2 0.45 0
0.25 0.45 0
0.2 0.5 0
0.25 0.5 0
0.25 0.45 0
0.3 0.45 0
0.25 0.5 0
0.3 0.5 0
0.3 0.4 0
0.35 0.4 0
0.3 0.45 0
0.35 0.45 0
0.35 0.4 0
0.4 0.4 0
0.35 0.45 0
0.4 0.45 0
0.3 0.45 0
0.35 0.45 0
0.3 0.5 0
0.35 0.5 0
0.35 0.45 0
0.4 0.45 0
0.35 0.5 0
0.4 0.5 0
0.2 0.5 0
0.25 0.5 0
0.2 0.55 0
0.25 0.55 0
0.25 0.5 0
0.3 0.5 0
0.25 0.55 0
0.3 0.55 0
0.2 0.55 0
0.25 0.55 0
0.2 0.6 0
0.25 0.6 0
0.25 0.55 0
0.3 0.55 0
0.25 0.6 0
0.3 0.6 0
0.3 0.5 0
0.35 0.5 0
0.3 0.55 0
0.35 0.55 0
0.35 0.5 0
0.4 0.5 0
0.35 0.55 0
0.4 0.55 0
0.3 0.55 0
0.35 0.55 0
0.3 0.6 0
0.35 0.6 0
0.35 0.55 0
0.4 0.55 0
0.35 0.6 0
0.4 0.6 0
0.2 0.6 0
0.25 0.6 0
0.2 0.65 0
0.25 0.65 0
0.25 0.6 0
0.3 0.6 0
0.25 0.65 0
0.3 0.65 0
0.2 0.65 0
0.25 0.65 0
0.2 0.7 0
0.25 0.7 0
0.25 0.65 0
0.3 0.65 0
0.25 0.7 0
0.3 0.7 0
0.3 0.6 0
0.35 0.6 0
0.3 0.65 0
0.35 0.65 0
0.35 0.6 0
0.4 0.6 0
0.35 0.65 0
0.4 0.65 0
0.3 0.65 0
0.35 0.65 0
0.3 0.7 0
0.35 0.7 0
0.35 0.65 0
0.4 0.65 0
0.35 0.7 0
0.4 0.7 0
0.2 0.7 0
0.25 0.7 0
0.2 0.75 0
0.25 0.75 0
0.25 0.7 0
0.3 0.7 0
0.25 0.75 0
0.3 0.75 0
0.2 0.75 0
0.25 0.75 0
0.2 0.8 0
0.25 0.8 0
0.25 0.75 0
0.3 0.75 0
0.25 0.8 0
0.3 0.8 0
0.3 0.7 0
0.35 0.7 0
0.3 0.75 0
0.35 0.75 0
0.35 0.7 0
0.4 0.7 0
0.35 0.75 0
0.4 0.75 0
0.3 0.75 0
0.35 0.75 0
0.3 0.8 0
0.35 0.8 0
0.35 0.75 0
0.4 0.75 0
0.35 0.8 0
0.4 0.8 0
0.2 0.8 0
0.25 0.8 0
0.2 0.85 0
0.25 0.85 0
0.25 0.8 0
0.3 0.8 0
0.25 0.85 0
0.3 0.85 0
0.2 0.85 0
0.25 0.85 0
0.2 0.9 0
0.25 0.9 0
0.25 0.85 0
0.3 0.85 0
0.25 0.9 0
0.3 0.9 0
0.3 0.8 0
0.35 0.8 0
0.3 0.85 0
0.35 0.85 0
0.35 0.8 0
0.4 0.8 0
0.35 0.85 0
0.4 0.85 0
0.3 0.85 0
0.35 0.85 0
0.3 0.9 0
0.35 0.9 0
0.35 0.85 0
0.4 0.85 0
0.35 0.9 0
0.4 0.9 0
0.2 0.9 0
0.25 0.9 0
0.2 0.95 0
0.25 0.95 0
0.25 0.9 0
0.3 0.9 0
0.25 0.95 0
0.3 0.95 0
0.2 0.95 0
0.25 0.95 0
0.2 1 0
0.25 1 0
0.25 0.95 0
0.3 0.95 0
0.25 1 0
0.3 1 0
0.3 0.9 0
0.35 0.9 0
0.3 0.95 0
0.35 0.95 0
0.35 0.9 0
0.4 0.9 0
0.35 0.95 0
0.4 0.95 0
0.3 0.95 0
0.35 0.95 0
0.3 1 0
0.35 1 0
0.35 0.95 0
0.4 0.95 0
0.35 1 0
0.4 1 0
0.4 0 0
0.45 0 0
0.4 0.05 0
0.45 0.05 0
0.45 0 0
0.5 0 0
0.45 0.05 0
0.5 0.05 0
0.4 0.05 0
0.45 0.05 0
0.4 0.1 0
0.45 0.1 0
0.45 0.05 0
0.5 0.05 0
0.45 0.1 0
0.5 0.1 0
0.5 0 0
0.55 0 0
0.5 0.05 0
0.55 0.05 0
0.55 0 0
0.6 0 0
0.55 0.05 0
0.6 0.05 0
0.5 0.05 0
0.55 0.05 0
0.5 0.1 0
0.55 0.1 0
0.55 0.05 0
0.6 0.05 0
0.55 0.1 0
0.6 0.1 0
0.4 0.1 0
0.45 0.1 0
0.4 0.15 0
0.45 0.15 0
0.45 0.1 0
0.5 0.1 0
0.45 0.15 0
0.5 0.15 0
0.4 0.15 0
0.45 0.15 0
0.4 0.2 0
0.45 0.2 0
0.45 0.15 0
0.5 0.15 0
0.45 0.2 0
0.5 0.2 0
0.5 0.1 0
0.55 0.1 0
0.5 0.15 0
0.55 0.15 0
0.55 0.1 0
0.6 0.1 0
0.55 0.15 0
0.6 0.15 0
0.5 0.15 0
0.55 0.15 0
0.5 0.2 0
0.55 0.2 0
0.55 0.15 0
0.6 0.15 0
0.55 0.2 0
0.6 0.2 0
0.4 0.2 0
0.45 0.2 0
0.4 0.25 0
0.45 0.25 0
0.45 0.2 0
0.5 0.2 0
0.45 0.25 0
0.5 0.25 0
0.4 0.25 0
0.45 0.25 0
0.4 0.3 0
0.45 0.3 0
0.45 0.25 0
0.5 0.25 0
0.45 0.3 0
0.5 0.3 0
0.5 0.2 0
0.55 0.2 0
0.5 0.25 0
0.55 0.25 0
0.55 0.2 0
0.6 0.2 0
0.55 0.25 0
0.6 0.25 0
0.5 0.25 0
0.55 0.25 0
0.5 0.3 0
0.55 0.3 0
0.55 0.25 0
0.6 0.25 0
0.55 0.3 0
0.6 0.3 0
0.4 0.3 0
0.45 0.3 0
0.4 0.35 0
0.45 0.35 0
0.45 0.3 0
0.5 0.3 0
0.45 0.35 0
0.5 0.35 0
0.4 0.35 0
0.45 0.35 0
0.4 0.4 0
0.45 0.4 0
0.45 0.35 0
0.5 0.35 0
0.45 0.4 0
0.5 0.4 0
0.5 0.3 0
0.55 0.3 0
0.5 0.35 0
0.55 0.35 0
0.55 0.3 0
0.6 0.3 0
0.55 0.35 0
0.6 0.35 0
0.5 0.35 0
0.55 0.35 0
0.5 0.4 0
0.55 0.4 0
0.55 0.35 0
0.6 0.35 0
0.55 0.4 0
0.6 0.4 0
0.4 0.4 0
0.45 0.4 0
0.4 0.45 0
0.45 0.45 0
0.45 0.4 0
0.5 0.4 0
0.45 0.45 0
0.5 0.45 0
0.4 0.45 0
0.45 0.45 0
0.4 0.5 0
0.45 0.5 0
0.45 0.45 0
0.5 0.45 0
0.45 0.5 0
0.5 0.5 0
0.5 0.4 0
0.55 0.4 0
0.5 0.45 0
0.55 0.45 0
0.55 0.4 0
0.6 0.4 0
0.55 0.45 0
0.6 0.45 0
0.5 0.45 0
0.55 0.45 0
0.5 0.5 0
0.55 0.5 0
0.55 0.45 0
0.6 0.45 0
0.55 0.5 0
0.6 0.5 0
0.4 0.5 0
0.45 0.5 0
0.4 0.55 0
0.45 0.55 0
0.45 0.5 0
0.5 0.5 0
0.45 0.55 0
0.5 0.55 0
0.4 0.55 0
0.45 0.55 0
0.4 0.6 0
0.45 0.6 0
0.45 0.55 0
0.5 0.55 0
0.45 0.6 0
0.5 0.6 0
0.5 0.5 0
0.55 0.5 0
0.5 0.55 0
0.55 0.55 0
0.55 0.5 0
0.6 0.5 0
0.55 0.55 0
0.6 0.55 0
0.5 0.55 0
0.55 0.55 0
0.5 0.6 0
0.55 0.6 0
0.55 0.55 0
0.6 0.55 0
0.55 0.6 0
0.6 0.6 0
0.4 0.6 0
0.45 0.6 0
0.4 0.65 0
0.45 0.65 0
0.45 0.6 0
0.5 0.6 0
0.45 0.65 0
0.5 0.65 0
0.4 0.65 0
0.45 0.65 0
0.4 0.7 0
0.45 0.7 0
0.45 0.65 0
0.5 0.65 0
0.45 0.7 0
0.5 0.7 0
0.5 0.6 0
0.55 0.6 0
0.5 0.65 0
0.55 0.65 0
0.55 0.6 0
0.6 0.6 0
0.55 0.65 0
0.6 0.65 0
0.5 0.65 0
0.55 0.65 0
0.5 0.7 0
0.55 0.7 0
0.55 0.65 0
0.6 0.65 0
0.55 0.7 0
0.6 0.7 0
0.4 0.7 0
0.45 0.7 0
0.4 0.75 0
0.45 0.75 0
0.45 0.7 0
0.5 0.7 0
0.45 0.75 0
0.5 0.75 0
0.4 0.75 0
0.45 0.75 0
0.4 0.8 0
0.45 0.8 0
0.45 0.75 0
0.5 0.75 0
0.45 0.8 0
0.5 0.8 0
0.5 0.7 0
0.55 0.7 0
0.5 0.75 0
0.55 0.75 0
0.55 0.7 0
0.6 0.7 0
0.55 0.75 0
0.6 0.75 0
0.5 0.75 0
0.55 0.75 0
0.5 0.8 0
0.55 0.8 0
0.55 0.75 0
0.6 0.75 0
0.55 0.8 0
0.6 0.8 0
0.4 0.8 0
0.45 0.8 0
0.4 0.85 0
0.45 0.85 0
0.45 0.8 0
0.5 0.8 0
0.45 0.85 0
0.5 0.85 0
0.4 0.85 0
0.45 0.85 0
0.4 0.9 0
0.45 0.9 0
0.45 0.85 0
[...]
POINT_DATA 1600
VECTORS velocity double
0 0 0
0.156434 0 0
0 -0.156434 0
0.154502 -0.15452 0
0.156434 0 0
0.309017 0 0
0.154502 -0.15452 0
0.305204 -0.148791 0
0 -0.156434 0
0.154502 -0.15452 0
0 -0.309017 0
0.148773 -0.305226 0
0.154502 -0.15452 0
0.305204 -0.148791 0
0.148773 -0.305226 0
0.293889 -0.293913 0
0.309017 0 0
0.45399 0 0
0.305204 -0.148791 0
0.448394 -0.139399 0
0.45399 0 0
0.587785 0 0
0.448394 -0.139399 0
0.580544 -0.126571 0
0.305204 -0.148791 0
0.448394 -0.139399 0
0.293889 -0.293913 0
0.431768 -0.275359 0
0.448394 -0.139399 0
0.580544 -0.126571 0
0.431768 -0.275359 0
0.559017 -0.250023 0
0 -0.309017 0
0.148773 -0.305226 0
0 -0.45399 0
0.139387 -0.448415 0
0.148773 -0.305226 0
0.293889 -0.293913 0
0.139387 -0.448415 0
0.275339 -0.431793 0
0 -0.45399 0
0.139387 -0.448415 0
0 -0.587785 0
0.126559 -0.580563 0
0.139387 -0.448415 0
0.275339 -0.431793 0
0.126559 -0.580563 0
0.250007 -0.55904 0
0.293889 -0.293913 0
0.431768 -0.275359 0
0.275339 -0.431793 0
0.404513 -0.404535 0
0.431768 -0.275359 0
0.559017 -0.250023 0
0.404513 -0.404535 0
0.523727 -0.367312 0
0.275339 -0.431793 0
0.404513 -0.404535 0
0.250007 -0.55904 0
0.367294 -0.523747 0
0.404513 -0.404535 0
0.523727 -0.367312 0
0.367294 -0.523747 0
0.475538 -0.475555 0
0 -0.587785 0
0.126559 -0.580563 0
0 -0.707107 0
0.110622 -0.698416 0
0.126559 -0.580563 0
0.250007 -0.55904 0
0.110622 -0.698416 0
0.218516 -0.672521 0
0 -0.707107 0
0.110622 -0.698416 0
0 -0.809017 0
0.0919527 -0.799071 0
0.110622 -0.698416 0
0.218516 -0.672521 0
0.0919527 -0.799071 0
0.181644 -0.769442 0
0.250007 -0.55904 0
0.367294 -0.523747 0
0.218516 -0.672521 0
0.32103 -0.630062 0
0.367294 -0.523747 0
0.475538 -0.475555 0
0.32103 -0.630062 0
0.415639 -0.572087 0
0.218516 -0.672521 0
0.32103 -0.630062 0
0.181644 -0.769442 0
0.266859 -0.720862 0
0.32103 -0.630062 0
0.415639 -0.572087 0
0.266859 -0.720862 0
0.345503 -0.654531 0
0 -0.809017 0
0.0919527 -0.799071 0
0 -0.891007 0
0.0710262 -0.880051 0
0.0919527 -0.799071 0
0.181644 -0.769442 0
0.0710262 -0.880051 0
0.140298 -0.847416 0
0 -0.891007 0
0.0710262 -0.880051 0
0 -0.951057 0
0.048344 -0.93936 0
0.0710262 -0.880051 0
0.140298 -0.847416 0
0.048344 -0.93936 0
0.0954985 -0.904524 0
0.181644 -0.769442 0
0.266859 -0.720862 0
0.140298 -0.847416 0
0.206117 -0.793912 0
0.266859 -0.720862 0
0.345503 -0.654531 0
0.206117 -0.793912 0
0.26686 -0.720858 0
0.140298 -0.847416 0
0.206117 -0.793912 0
0.0954985 -0.904524 0
0.140299 -0.847412 0
0.206117 -0.793912 0
0.26686 -0.720858 0
0.140299 -0.847412 0
0.181645 -0.769434 0
0 -0.951057 0
0.048344 -0.93936 0
0 -0.987688 0
0.0244768 -0.975539 0
0.048344 -0.93936 0
0.0954985 -0.904524 0
0.0244768 -0.975539 0
0.0483465 -0.939358 0
0 -0.987688 0
0.0244768 -0.975539 0
0 -1 0
2.64854e-06 -0.987695 0
0.0244768 -0.975539 0
0.0483465 -0.939358 0
2.64854e-06 -0.987695 0
4.70155e-06 -0.951063 0
0.0954985 -0.904524 0
0.140299 -0.847412 0
0.0483465 -0.939358 0
0.0710267 -0.880047 0
0.140299 -0.847412 0
0.181645 -0.769434 0
0.0710267 -0.880047 0
0.091958 -0.799065 0
0.0483465 -0.939358 0
0.0710267 -0.880047 0
4.70155e-06 -0.951063 0
5.42019e-06 -0.891011 0
0.0710267 -0.880047 0
0.091958 -0.799065 0
5.42019e-06 -0.891011 0
6.87493e-06 -0.80902 0
0 -1 0
2.64854e-06 -0.987695 0
0 -0.987688 0
-0.0244685 -0.975532 0
2.64854e-06 -0.987695 0
4.70155e-06 -0.951063 0
-0.0244685 -0.975532 0
-0.0483375 -0.939349 0
0 -0.987688 0
-0.0244685 -0.975532 0
0 -0.951057 0
-0.0483389 -0.939347 0
-0.0244685 -0.975532 0
-0.0483375 -0.939349 0
-0.0483389 -0.939347 0
-0.095489 -0.904505 0
4.70155e-06 -0.951063 0
5.42019e-06 -0.891011 0
-0.0483375 -0.939349 0
-0.0710154 -0.880037 0
5.42019e-06 -0.891011 0
6.87493e-06 -0.80902 0
-0.0710154 -0.880037 0
-0.091944 -0.799055 0
-0.0483375 -0.939349 0
-0.0710154 -0.880037 0
-0.095489 -0.904505 0
-0.140288 -0.847393 0
-0.0710154 -0.880037 0
-0.091944 -0.799055 0
-0.140288 -0.847393 0
-0.181631 -0.769415 0
0 -0.951057 0
-0.0483389 -0.939347 0
0 -0.891007 0
-0.0710184 -0.880033 0
-0.0483389 -0.939347 0
-0.095489 -0.904505 0
-0.0710184 -0.880033 0
-0.140289 -0.84739 0
0 -0.891007 0
-0.0710184 -0.880033 0
0 -0.809017 0
-0.0919486 -0.799048 0
-0.0710184 -0.880033 0
-0.140289 -0.84739 0
-0.0919486 -0.799048 0
-0.181635 -0.769409 0
-0.095489 -0.904505 0
-0.140288 -0.847393 0
-0.140289 -0.84739 0
-0.206106 -0.793884 0
-0.140288 -0.847393 0
-0.181631 -0.769415 0
-0.206106 -0.793884 0
-0.266846 -0.72083 0
-0.140289 -0.84739 0
-0.206106 -0.793884 0
-0.181635 -0.769409 0
-0.266848 -0.720827 0
-0.206106 -0.793884 0
-0.266846 -0.72083 0
-0.266848 -0.720827 0
-0.34549 -0.654496 0
0 -0.809017 0
-0.0919486 -0.799048 0
0 -0.707107 0
-0.110616 -0.698389 0
-0.0919486 -0.799048 0
-0.181635 -0.769409 0
-0.110616 -0.698389 0
-0.218509 -0.672483 0
0 -0.707107 0
-0.110616 -0.698389 0
0 -0.587785 0
-0.126558 -0.580533 0
-0.110616 -0.698389 0
-0.218509 -0.672483 0
-0.126558 -0.580533 0
-0.250002 -0.558998 0
-0.181635 -0.769409 0
-0.266848 -0.720827 0
-0.218509 -0.672483 0
-0.321021 -0.630022 0
-0.266848 -0.720827 0
-0.34549 -0.654496 0
-0.321021 -0.630022 0
-0.415627 -0.572047 0
-0.218509 -0.672483 0
-0.321021 -0.630022 0
-0.250002 -0.558998 0
-0.367288 -0.523703 0
-0.321021 -0.630022 0
-0.415627 -0.572047 0
-0.367288 -0.523703 0
-0.475529 -0.475512 0
0 -0.587785 0
-0.126558 -0.580533 0
0 -0.45399 0
-0.139386 -0.448384 0
-0.126558 -0.580533 0
-0.250002 -0.558998 0
-0.139386 -0.448384 0
-0.275338 -0.43175 0
0 -0.45399 0
-0.139386 -0.448384 0
0 -0.309017 0
-0.148779 -0.305195 0
-0.139386 -0.448384 0
-0.275338 -0.43175 0
-0.148779 -0.305195 0
-0.293896 -0.293874 0
-0.250002 -0.558998 0
-0.367288 -0.523703 0
-0.275338 -0.43175 0
-0.404511 -0.40449 0
-0.367288 -0.523703 0
-0.475529 -0.475512 0
-0.404511 -0.40449 0
-0.523723 -0.367269 0
-0.275338 -0.43175 0
-0.404511 -0.40449 0
-0.293896 -0.293874 0
-0.431773 -0.275319 0
-0.404511 -0.40449 0
-0.523723 -0.367269 0
-0.431773 -0.275319 0
-0.559019 -0.249985 0
0 -0.309017 0
-0.148779 -0.305195 0
0 -0.156434 0
-0.154513 -0.154497 0
-0.148779 -0.305195 0
-0.293896 -0.293874 0
-0.154513 -0.154497 0
-0.305215 -0.148763 0
0 -0.156434 0
-0.154513 -0.154497 0
0 -1.22465e-16 0
-0.156434 -1.20957e-16 0
-0.154513 -0.154497 0
-0.305215 -0.148763 0
-0.156434 -1.20957e-16 0
-0.309017 -1.16471e-16 0
-0.293896 -0.293874 0
-0.431773 -0.275319 0
-0.305215 -0.148763 0
-0.448403 -0.139375 0
-0.431773 -0.275319 0
-0.559019 -0.249985 0
-0.448403 -0.139375 0
-0.58055 -0.126546 0
-0.305215 -0.148763 0
-0.448403 -0.139375 0
-0.309017 -1.16471e-16 0
-0.45399 -1.09117e-16 0
-0.448403 -0.139375 0
-0.58055 -0.126546 0
-0.45399 -1.09117e-16 0
-0.587785 -9.9076e-17 0
0.587785 0 0
0.707107 0 0
0.580544 -0.126571 0
0.698399 -0.11063 0
0.707107 0 0
0.809017 0 0
0.698399 -0.11063 0
0.799057 -0.0919603 0
0.580544 -0.126571 0
0.698399 -0.11063 0
0.559017 -0.250023 0
0.672501 -0.218529 0
0.698399 -0.11063 0
0.799057 -0.0919603 0
0.672501 -0.218529 0
0.769426 -0.181655 0
0.809017 0 0
0.891007 0 0
0.799057 -0.0919603 0
0.88004 -0.0710299 0
0.891007 0 0
0.951057 0 0
0.88004 -0.0710299 0
0.939352 -0.0483476 0
0.799057 -0.0919603 0
0.88004 -0.0710299 0
0.769426 -0.181655 0
0.847405 -0.140307 0
0.88004 -0.0710299 0
0.939352 -0.0483476 0
0.847405 -0.140307 0
0.904518 -0.0955045 0
0.559017 -0.250023 0
0.672501 -0.218529 0
0.523727 -0.367312 0
0.630045 -0.321045 0
0.672501 -0.218529 0
0.769426 -0.181655 0
0.630045 -0.321045 0
0.72085 -0.266872 0
0.523727 -0.367312 0
0.630045 -0.321045 0
0.475538 -0.475555 0
0.572073 -0.415653 0
0.630045 -0.321045 0
0.72085 -0.266872 0
0.572073 -0.415653 0
0.654521 -0.345515 0
0.769426 -0.181655 0
0.847405 -0.140307 0
0.72085 -0.266872 0
0.793904 -0.206127 0
0.847405 -0.140307 0
0.904518 -0.0955045 0
0.793904 -0.206127 0
0.847411 -0.140307 0
0.72085 -0.266872 0
0.793904 -0.206127 0
0.654521 -0.345515 0
0.720854 -0.26687 0
0.793904 -0.206127 0
0.847411 -0.140307 0
0.720854 -0.26687 0
0.769437 -0.181653 0
0.475538 -0.475555 0
0.572073 -0.415653 0
0.415639 -0.572087 0
0.500013 -0.500025 0
0.572073 -0.415653 0
0.654521 -0.345515 0
0.500013 -0.500025 0
0.572075 -0.415649 0
0.415639 -0.572087 0
0.500013 -0.500025 0
0.345503 -0.654531 0
0.415639 -0.572083 0
0.500013 -0.500025 0
0.572075 -0.415649 0
0.415639 -0.572083 0
0.475542 -0.475548 0
0.654521 -0.345515 0
0.720854 -0.26687 0
0.572075 -0.415649 0
0.630052 -0.32104 0
0.720854 -0.26687 0
0.769437 -0.181653 0
0.630052 -0.32104 0
0.672515 -0.218525 0
0.572075 -0.415649 0
0.630052 -0.32104 0
0.475542 -0.475548 0
0.523735 -0.367304 0
0.630052 -0.32104 0
0.672515 -0.218525 0
0.523735 -0.367304 0
0.559034 -0.250016 0
0.345503 -0.654531 0
0.415639 -0.572083 0
0.26686 -0.720858 0
0.321031 -0.630054 0
0.415639 -0.572083 0
0.475542 -0.475548 0
0.321031 -0.630054 0
0.367299 -0.523736 0
0.26686 -0.720858 0
0.321031 -0.630054 0
0.181645 -0.769434 0
0.218518 -0.672511 0
0.321031 -0.630054 0
0.367299 -0.523736 0
0.218518 -0.672511 0
0.250012 -0.559028 0
0.475542 -0.475548 0
0.523735 -0.367304 0
0.367299 -0.523736 0
0.404523 -0.404523 0
0.523735 -0.367304 0
0.559034 -0.250016 0
0.404523 -0.404523 0
0.431788 -0.275349 0
0.367299 -0.523736 0
0.404523 -0.404523 0
0.250012 -0.559028 0
0.275351 -0.43178 0
0.404523 -0.404523 0
0.431788 -0.275349 0
0.275351 -0.43178 0
0.29391 -0.293901 0
0.181645 -0.769434 0
0.218518 -0.672511 0
0.091958 -0.799065 0
0.110626 -0.698408 0
0.218518 -0.672511 0
0.250012 -0.559028 0
0.110626 -0.698408 0
0.12657 -0.580554 0
0.091958 -0.799065 0
0.110626 -0.698408 0
6.87493e-06 -0.80902 0
8.97977e-06 -0.707109 0
0.110626 -0.698408 0
0.12657 -0.580554 0
8.97977e-06 -0.707109 0
1.1742e-05 -0.587785 0
0.250012 -0.559028 0
0.275351 -0.43178 0
0.12657 -0.580554 0
0.139399 -0.448405 0
0.275351 -0.43178 0
0.29391 -0.293901 0
0.139399 -0.448405 0
0.148796 -0.305216 0
0.12657 -0.580554 0
0.139399 -0.448405 0
1.1742e-05 -0.587785 0
1.51404e-05 -0.45399 0
0.139399 -0.448405 0
0.148796 -0.305216 0
1.51404e-05 -0.45399 0
1.90235e-05 -0.309016 0
6.87493e-06 -0.80902 0
8.97977e-06 -0.707109 0
-0.091944 -0.799055 0
-0.110608 -0.698398 0
8.97977e-06 -0.707109 0
1.1742e-05 -0.587785 0
-0.110608 -0.698398 0
-0.126547 -0.580544 0
-0.091944 -0.799055 0
-0.110608 -0.698398 0
-0.181631 -0.769415 0
-0.218501 -0.672492 0
-0.110608 -0.698398 0
-0.126547 -0.580544 0
-0.218501 -0.672492 0
-0.249989 -0.559009 0
1.1742e-05 -0.587785 0
1.51404e-05 -0.45399 0
-0.126547 -0.580544 0
-0.139369 -0.448396 0
1.51404e-05 -0.45399 0
1.90235e-05 -0.309016 0
-0.139369 -0.448396 0
-0.148758 -0.305207 0
-0.126547 -0.580544 0
-0.139369 -0.448396 0
-0.249989 -0.559009 0
-0.275321 -0.431762 0
-0.139369 -0.448396 0
-0.148758 -0.305207 0
-0.275321 -0.431762 0
-0.293874 -0.293884 0
-0.181631 -0.769415 0
-0.218501 -0.672492 0
-0.266846 -0.72083 0
-0.321014 -0.630027 0
-0.218501 -0.672492 0
-0.249989 -0.559009 0
-0.321014 -0.630027 0
-0.367277 -0.523709 0
-0.266846 -0.72083 0
-0.321014 -0.630027 0
-0.34549 -0.654496 0
-0.415623 -0.572049 0
-0.321014 -0.630027 0
-0.367277 -0.523709 0
-0.415623 -0.572049 0
-0.475521 -0.475515 0
-0.249989 -0.559009 0
-0.275321 -0.431762 0
-0.367277 -0.523709 0
-0.404495 -0.404497 0
-0.275321 -0.431762 0
-0.293874 -0.293884 0
-0.404495 -0.404497 0
-0.431753 -0.275325 0
-0.367277 -0.523709 0
-0.404495 -0.404497 0
-0.475521 -0.475515 0
-0.52371 -0.367273 0
-0.404495 -0.404497 0
-0.431753 -0.275325 0
-0.52371 -0.367273 0
-0.559002 -0.249987 0
-0.34549 -0.654496 0
-0.415623 -0.572049 0
-0.415627 -0.572047 0
-0.499998 -0.499986 0
-0.415623 -0.572049 0
-0.475521 -0.475515 0
-0.499998 -0.499986 0
-0.572057 -0.415613 0
-0.415627 -0.572047 0
-0.499998 -0.499986 0
-0.475529 -0.475512 0
-0.572061 -0.415612 0
-0.499998 -0.499986 0
-0.572057 -0.415613 0
-0.572061 -0.415612 0
-0.654507 -0.345477 0
-0.475521 -0.475515 0
-0.52371 -0.367273 0
-0.572057 -0.415613 0
-0.630029 -0.321006 0
-0.52371 -0.367273 0
-0.559002 -0.249987 0
-0.630029 -0.321006 0
-0.672488 -0.218494 0
-0.572057 -0.415613 0
-0.630029 -0.321006 0
-0.654507 -0.345477 0
-0.720836 -0.266835 0
-0.630029 -0.321006 0
-0.672488 -0.218494 0
-0.720836 -0.266835 0
-0.769415 -0.181622 0
-0.475529 -0.475512 0
-0.572061 -0.415612 0
-0.523723 -0.367269 0
-0.630038 -0.321005 0
-0.572061 -0.415612 0
-0.654507 -0.345477 0
-0.630038 -0.321005 0
-0.72084 -0.266835 0
-0.523723 -0.367269 0
-0.630038 -0.321005 0
-0.559019 -0.249985 0
-0.672501 -0.218494 0
-0.630038 -0.321005 0
-0.72084 -0.266835 0
-0.672501 -0.218494 0
-0.769423 -0.181623 0
-0.654507 -0.345477 0
-0.720836 -0.266835 0
-0.72084 -0.266835 0
-0.793892 -0.206094 0
-0.720836 -0.266835 0
-0.769415 -0.181622 0
-0.793892 -0.206094 0
-0.847396 -0.140279 0
-0.72084 -0.266835 0
-0.793892 -0.206094 0
-0.769423 -0.181623 0
-0.847399 -0.14028 0
-0.793892 -0.206094 0
-0.847396 -0.140279 0
-0.847399 -0.14028 0
-0.90451 -0.0954819 0
-0.559019 -0.249985 0
-0.672501 -0.218494 0
-0.58055 -0.126546 0
-0.698403 -0.110608 0
-0.672501 -0.218494 0
-0.769423 -0.181623 0
-0.698403 -0.110608 0
-0.799058 -0.0919403 0
-0.58055 -0.126546 0
-0.698403 -0.110608 0
-0.587785 -9.9076e-17 0
-0.707107 -8.65956e-17 0
-0.698403 -0.110608 0
-0.799058 -0.0919403 0
-0.707107 -8.65956e-17 0
-0.809017 -7.19829e-17 0
-0.769423 -0.181623 0
-0.847399 -0.14028 0
-0.799058 -0.0919403 0
-0.880039 -0.0710133 0
-0.847399 -0.14028 0
-0.90451 -0.0954819 0
-0.880039 -0.0710133 0
-0.93935 -0.0483345 0
-0.799058 -0.0919403 0
-0.880039 -0.0710133 0
-0.809017 -7.19829e-17 0
-0.891007 -5.55978e-17 0
-0.880039 -0.0710133 0
-0.93935 -0.0483345 0
-0.891007 -5.55978e-17 0
-0.951057 -3.78437e-17 0
0.951057 0 0
0.987688 0 0
0.939352 -0.0483476 0
0.975535 -0.0244771 0
0.987688 0 0
1 0 0
0.975535 -0.0244771 0
0.987696 -2.42907e-06 0
0.939352 -0.0483476 0
0.975535 -0.0244771 0
0.904518 -0.0955045 0
0.939358 -0.0483503 0
0.975535 -0.0244771 0
0.987696 -2.42907e-06 0
0.939358 -0.0483503 0
0.951069 -5.72459e-06 0
1 0 0
0.987688 0 0
0.987696 -2.42907e-06 0
0.975537 0.0244715 0
0.987688 0 0
0.951057 0 0
0.975537 0.0244715 0
0.939356 0.0483427 0
0.987696 -2.42907e-06 0
0.975537 0.0244715 0
0.951069 -5.72459e-06 0
0.939361 0.0483391 0
0.975537 0.0244715 0
0.939356 0.0483427 0
0.939361 0.0483391 0
0.904523 0.0954935 0
0.904518 -0.0955045 0
0.939358 -0.0483503 0
0.847411 -0.140307 0
0.880052 -0.0710322 0
0.939358 -0.0483503 0
0.951069 -5.72459e-06 0
0.880052 -0.0710322 0
0.891023 -8.33244e-06 0
0.847411 -0.140307 0
0.880052 -0.0710322 0
0.769437 -0.181653 0
0.799074 -0.091964 0
0.880052 -0.0710322 0
0.891023 -8.33244e-06 0
0.799074 -0.091964 0
0.809036 -1.01764e-05 0
0.951069 -5.72459e-06 0
0.939361 0.0483391 0
0.891023 -8.33244e-06 0
0.880055 0.0710158 0
0.939361 0.0483391 0
0.904523 0.0954935 0
0.880055 0.0710158 0
0.847416 0.140291 0
0.891023 -8.33244e-06 0
0.880055 0.0710158 0
0.809036 -1.01764e-05 0
0.799078 0.091944 0
0.880055 0.0710158 0
0.847416 0.140291 0
0.799078 0.091944 0
0.769443 0.181634 0
0.769437 -0.181653 0
0.799074 -0.091964 0
0.672515 -0.218525 0
0.69842 -0.11063 0
0.799074 -0.091964 0
0.809036 -1.01764e-05 0
0.69842 -0.11063 0
0.707128 -1.11262e-05 0
0.672515 -0.218525 0
0.69842 -0.11063 0
0.559034 -0.250016 0
0.580568 -0.126572 0
0.69842 -0.11063 0
0.707128 -1.11262e-05 0
0.580568 -0.126572 0
0.587807 -1.10299e-05 0
0.809036 -1.01764e-05 0
0.799078 0.091944 0
0.707128 -1.11262e-05 0
0.698424 0.110609 0
0.799078 0.091944 0
0.769443 0.181634 0
0.698424 0.110609 0
0.672523 0.218505 0
0.707128 -1.11262e-05 0
0.698424 0.110609 0
0.587807 -1.10299e-05 0
0.580573 0.12655 0
0.698424 0.110609 0
0.672523 0.218505 0
0.580573 0.12655 0
0.559044 0.249996 0
0.559034 -0.250016 0
0.580568 -0.126572 0
0.431788 -0.275349 0
0.448421 -0.139395 0
0.580568 -0.126572 0
0.587807 -1.10299e-05 0
0.448421 -0.139395 0
0.454013 -9.87119e-06 0
0.431788 -0.275349 0
0.448421 -0.139395 0
0.29391 -0.293901 0
0.305233 -0.148786 0
0.448421 -0.139395 0
0.454013 -9.87119e-06 0
0.305233 -0.148786 0
0.309041 -7.61402e-06 0
0.587807 -1.10299e-05 0
0.580573 0.12655 0
0.454013 -9.87119e-06 0
0.448427 0.139376 0
0.580573 0.12655 0
0.559044 0.249996 0
0.448427 0.139376 0
0.431799 0.275331 0
0.454013 -9.87119e-06 0
0.448427 0.139376 0
0.309041 -7.61402e-06 0
0.30524 0.148771 0
0.448427 0.139376 0
0.431799 0.275331 0
0.30524 0.148771 0
0.293923 0.293888 0
0.29391 -0.293901 0
0.305233 -0.148786 0
0.148796 -0.305216 0
0.15453 -0.154513 0
0.305233 -0.148786 0
0.309041 -7.61402e-06 0
0.15453 -0.154513 0
0.15646 -4.5354e-06 0
0.148796 -0.305216 0
0.15453 -0.154513 0
1.90235e-05 -0.309016 0
2.31486e-05 -0.156434 0
0.15453 -0.154513 0
0.15646 -4.5354e-06 0
2.31486e-05 -0.156434 0
2.70878e-05 -9.12436e-07 0
0.309041 -7.61402e-06 0
0.30524 0.148771 0
0.15646 -4.5354e-06 0
0.154538 0.154504 0
0.30524 0.148771 0
0.293923 0.293888 0
0.154538 0.154504 0
0.14881 0.305208 0
0.15646 -4.5354e-06 0
0.154538 0.154504 0
2.70878e-05 -9.12436e-07 0
3.04244e-05 0.156433 0
0.154538 0.154504 0
0.14881 0.305208 0
3.04244e-05 0.156433 0
3.26755e-05 0.309015 0
1.90235e-05 -0.309016 0
2.31486e-05 -0.156434 0
-0.148758 -0.305207 0
-0.154485 -0.154504 0
2.31486e-05 -0.156434 0
2.70878e-05 -9.12436e-07 0
-0.154485 -0.154504 0
-0.156407 2.74511e-06 0
-0.148758 -0.305207 0
-0.154485 -0.154504 0
-0.293874 -0.293884 0
-0.305189 -0.14877 0
-0.154485 -0.154504 0
-0.156407 2.74511e-06 0
-0.305189 -0.14877 0
-0.30899 6.04751e-06 0
2.70878e-05 -9.12436e-07 0
3.04244e-05 0.156433 0
-0.156407 2.74511e-06 0
-0.154478 0.15451 0
3.04244e-05 0.156433 0
3.26755e-05 0.309015 0
-0.154478 0.15451 0
-0.148745 0.305213 0
-0.156407 2.74511e-06 0
-0.154478 0.15451 0
-0.30899 6.04751e-06 0
-0.305183 0.148782 0
-0.154478 0.15451 0
-0.148745 0.305213 0
-0.305183 0.148782 0
-0.293861 0.293895 0
-0.293874 -0.293884 0
-0.305189 -0.14877 0
-0.431753 -0.275325 0
-0.44838 -0.139374 0
-0.305189 -0.14877 0
-0.30899 6.04751e-06 0
-0.44838 -0.139374 0
-0.453966 8.57258e-06 0
-0.431753 -0.275325 0
-0.44838 -0.139374 0
-0.559002 -0.249987 0
-0.580531 -0.126546 0
-0.44838 -0.139374 0
-0.453966 8.57258e-06 0
-0.580531 -0.126546 0
-0.587764 1.01148e-05 0
-0.30899 6.04751e-06 0
-0.305183 0.148782 0
-0.453966 8.57258e-06 0
-0.448374 0.139391 0
-0.305183 0.148782 0
-0.293861 0.293895 0
-0.448374 0.139391 0
-0.431742 0.275341 0
-0.453966 8.57258e-06 0
-0.448374 0.139391 0
-0.587764 1.01148e-05 0
-0.580526 0.126566 0
-0.448374 0.139391 0
-0.431742 0.275341 0
-0.580526 0.126566 0
-0.558993 0.250006 0
-0.559002 -0.249987 0
-0.580531 -0.126546 0
-0.672488 -0.218494 0
-0.698388 -0.110603 0
-0.580531 -0.126546 0
-0.587764 1.01148e-05 0
-0.698388 -0.110603 0
-0.707091 1.05356e-05 0
-0.672488 -0.218494 0
-0.698388 -0.110603 0
-0.769415 -0.181622 0
-0.799048 -0.0919381 0
-0.698388 -0.110603 0
-0.707091 1.05356e-05 0
-0.799048 -0.0919381 0
-0.809007 9.87266e-06 0
-0.587764 1.01148e-05 0
-0.580526 0.126566 0
-0.707091 1.05356e-05 0
-0.698384 0.110624 0
-0.580526 0.126566 0
-0.558993 0.250006 0
-0.698384 0.110624 0
-0.672481 0.218514 0
-0.707091 1.05356e-05 0
-0.698384 0.110624 0
-0.809007 9.87266e-06 0
-0.799045 0.0919573 0
-0.698384 0.110624 0
-0.672481 0.218514 0
-0.799045 0.0919573 0
-0.769409 0.18164 0
-0.769415 -0.181622 0
-0.799048 -0.0919381 0
-0.847396 -0.140279 0
-0.880033 -0.0710095 0
-0.799048 -0.0919381 0
-0.809007 9.87266e-06 0
-0.880033 -0.0710095 0
-0.891002 8.20978e-06 0
-0.847396 -0.140279 0
-0.880033 -0.0710095 0
-0.90451 -0.0954819 0
-0.939348 -0.048333 0
-0.880033 -0.0710095 0
-0.891002 8.20978e-06 0
-0.939348 -0.048333 0
-0.951057 5.92579e-06 0
-0.809007 9.87266e-06 0
-0.799045 0.0919573 0
-0.891002 8.20978e-06 0
-0.880031 0.0710255 0
-0.799045 0.0919573 0
-0.769409 0.18164 0
-0.880031 0.0710255 0
-0.847392 0.140294 0
-0.891002 8.20978e-06 0
-0.880031 0.0710255 0
-0.951057 5.92579e-06 0
-0.939347 0.0483443 0
-0.880031 0.0710255 0
-0.847392 0.140294 0
-0.939347 0.0483443 0
-0.904508 0.0954924 0
-0.90451 -0.0954819 0
-0.939348 -0.048333 0
-0.93935 -0.0483345 0
-0.975531 -0.0244672 0
-0.939348 -0.048333 0
-0.951057 5.92579e-06 0
-0.975531 -0.0244672 0
-0.987691 2.83173e-06 0
-0.93935 -0.0483345 0
-0.975531 -0.0244672 0
-0.951057 -3.78437e-17 0
-0.987688 -1.91577e-17 0
-0.975531 -0.0244672 0
-0.987691 2.83173e-06 0