# vtk DataFile Version 3.0
#This file was generated by the deal.II library on 2026/4/13 at 12:08:29
ASCII
DATASET UNSTRUCTURED_GRID

POINTS 60192 double
0.30303 0 0
0.40404 0 0
0.30303 0.125 0
0.40404 0.125 0
0.30303 0.125 0
0.40404 0.125 0
0.30303 0.25 0
0.40404 0.25 0
0.40404 0 0
0.505051 0 0
0.40404 0.125 0
0.505051 0.125 0
0.40404 0.125 0
0.505051 0.125 0
0.40404 0.25 0
0.505051 0.25 0
0.505051 0 0
0.606061 0 0
0.505051 0.125 0
0.606061 0.125 0
0.505051 0.125 0
0.606061 0.125 0
0.505051 0.25 0
0.606061 0.25 0
0.606061 0 0
0.707071 0 0
0.606061 0.125 0
0.707071 0.125 0
0.606061 0.125 0
0.707071 0.125 0
0.606061 0.25 0
0.707071 0.25 0
0.707071 0 0
0.808081 0 0
0.707071 0.125 0
0.808081 0.125 0
0.707071 0.125 0
0.808081 0.125 0
0.707071 0.25 0
0.808081 0.25 0
0.808081 0 0
0.909091 0 0
0.808081 0.125 0
0.909091 0.125 0
0.808081 0.125 0
0.909091 0.125 0
0.808081 0.25 0
0.909091 0.25 0
0.909091 0 0
1.0101 0 0
0.909091 0.125 0
1.0101 0.125 0
0.909091 0.125 0
1.0101 0.125 0
0.909091 0.25 0
1.0101 0.25 0
1.0101 0 0
1.11111 0 0
1.0101 0.125 0
1.11111 0.125 0
1.0101 0.125 0
1.11111 0.125 0
1.0101 0.25 0
1.11111 0.25 0
1.11111 0 0
1.21212 0 0
1.11111 0.125 0
1.21212 0.125 0
1.11111 0.125 0
1.21212 0.125 0
1.11111 0.25 0
1.21212 0.25 0
1.21212 0 0
1.31313 0 0
1.21212 0.125 0
1.31313 0.125 0
1.21212 0.125 0
1.31313 0.125 0
1.21212 0.25 0
1.31313 0.25 0
1.31313 0 0
1.41414 0 0
1.31313 0.125 0
1.41414 0.125 0
1.31313 0.125 0
1.41414 0.125 0
1.31313 0.25 0
1.41414 0.25 0
1.41414 0 0
1.51515 0 0
1.41414 0.125 0
1.51515 0.125 0
1.41414 0.125 0
1.51515 0.125 0
1.41414 0.25 0
1.51515 0.25 0
1.51515 0 0
1.61616 0 0
1.51515 0.125 0
1.61616 0.125 0
1.51515 0.125 0
1.61616 0.125 0
1.51515 0.25 0
1.61616 0.25 0
1.61616 0 0
1.71717 0 0
1.61616 0.125 0
1.71717 0.125 0
1.61616 0.125 0
1.71717 0.125 0
1.61616 0.25 0
1.71717 0.25 0
1.71717 0 0
1.81818 0 0
1.71717 0.125 0
1.81818 0.125 0
1.71717 0.125 0
1.81818 0.125 0
1.71717 0.25 0
1.81818 0.25 0
1.81818 0 0
1.91919 0 0
1.81818 0.125 0
1.91919 0.125 0
1.81818 0.125 0
1.91919 0.125 0
1.81818 0.25 0
1.91919 0.25 0
1.91919 0 0
2.0202 0 0
1.91919 0.125 0
2.0202 0.125 0
1.91919 0.125 0
2.0202 0.125 0
1.91919 0.25 0
2.0202 0.25 0
2.0202 0 0
2.12121 0 0
2.0202 0.125 0
2.12121 0.125 0
2.0202 0.125 0
2.12121 0.125 0
2.0202 0.25 0
2.12121 0.25 0
2.12121 0 0
2.22222 0 0
2.12121 0.125 0
2.22222 0.125 0
2.12121 0.125 0
2.22222 0.125 0
2.12121 0.25 0
2.22222 0.25 0
2.22222 0 0
2.32323 0 0
2.22222 0.125 0
2.32323 0.125 0
2.22222 0.125 0
2.32323 0.125 0
2.22222 0.25 0
2.32323 0.25 0
2.32323 0 0
2.42424 0 0
2.32323 0.125 0
2.42424 0.125 0
2.32323 0.125 0
2.42424 0.125 0
2.32323 0.25 0
2.42424 0.25 0
2.42424 0 0
2.52525 0 0
2.42424 0.125 0
2.52525 0.125 0
2.42424 0.125 0
2.52525 0.125 0
2.42424 0.25 0
2.52525 0.25 0
2.52525 0 0
2.62626 0 0
2.52525 0.125 0
2.62626 0.125 0
2.52525 0.125 0
2.62626 0.125 0
2.52525 0.25 0
2.62626 0.25 0
2.62626 0 0
2.72727 0 0
2.62626 0.125 0
2.72727 0.125 0
2.62626 0.125 0
2.72727 0.125 0
2.62626 0.25 0
2.72727 0.25 0
2.72727 0 0
2.82828 0 0
2.72727 0.125 0
2.82828 0.125 0
2.72727 0.125 0
2.82828 0.125 0
2.72727 0.25 0
2.82828 0.25 0
2.82828 0 0
2.92929 0 0
2.82828 0.125 0
2.92929 0.125 0
2.82828 0.125 0
2.92929 0.125 0
2.82828 0.25 0
2.92929 0.25 0
2.92929 0 0
3.0303 0 0
2.92929 0.125 0
3.0303 0.125 0
2.92929 0.125 0
3.0303 0.125 0
2.92929 0.25 0
3.0303 0.25 0
3.0303 0 0
3.13131 0 0
3.0303 0.125 0
3.13131 0.125 0
3.0303 0.125 0
3.13131 0.125 0
3.0303 0.25 0
3.13131 0.25 0
3.13131 0 0
3.23232 0 0
3.13131 0.125 0
3.23232 0.125 0
3.13131 0.125 0
3.23232 0.125 0
3.13131 0.25 0
3.23232 0.25 0
3.23232 0 0
3.33333 0 0
3.23232 0.125 0
3.33333 0.125 0
3.23232 0.125 0
3.33333 0.125 0
3.23232 0.25 0
3.33333 0.25 0
3.33333 0 0
3.43434 0 0
3.33333 0.125 0
3.43434 0.125 0
3.33333 0.125 0
3.43434 0.125 0
3.33333 0.25 0
3.43434 0.25 0
3.43434 0 0
3.53535 0 0
3.43434 0.125 0
3.53535 0.125 0
3.43434 0.125 0
3.53535 0.125 0
3.43434 0.25 0
3.53535 0.25 0
3.53535 0 0
3.63636 0 0
3.53535 0.125 0
3.63636 0.125 0
3.53535 0.125 0
3.63636 0.125 0
3.53535 0.25 0
3.63636 0.25 0
3.63636 0 0
3.73737 0 0
3.63636 0.125 0
3.73737 0.125 0
3.63636 0.125 0
3.73737 0.125 0
3.63636 0.25 0
3.73737 0.25 0
3.73737 0 0
3.83838 0 0
3.73737 0.125 0
3.83838 0.125 0
3.73737 0.125 0
3.83838 0.125 0
3.73737 0.25 0
3.83838 0.25 0
3.83838 0 0
3.93939 0 0
3.83838 0.125 0
3.93939 0.125 0
3.83838 0.125 0
3.93939 0.125 0
3.83838 0.25 0
3.93939 0.25 0
3.93939 0 0
4.0404 0 0
3.93939 0.125 0
4.0404 0.125 0
3.93939 0.125 0
4.0404 0.125 0
3.93939 0.25 0
4.0404 0.25 0
4.0404 0 0
4.14141 0 0
4.0404 0.125 0
4.14141 0.125 0
4.0404 0.125 0
4.14141 0.125 0
4.0404 0.25 0
4.14141 0.25 0
4.14141 0 0
4.24242 0 0
4.14141 0.125 0
4.24242 0.125 0
4.14141 0.125 0
4.24242 0.125 0
4.14141 0.25 0
4.24242 0.25 0
4.24242 0 0
4.34343 0 0
4.24242 0.125 0
4.34343 0.125 0
4.24242 0.125 0
4.34343 0.125 0
4.24242 0.25 0
4.34343 0.25 0
4.34343 0 0
4.44444 0 0
4.34343 0.125 0
4.44444 0.125 0
4.34343 0.125 0
4.44444 0.125 0
4.34343 0.25 0
4.44444 0.25 0
4.44444 0 0
4.54545 0 0
4.44444 0.125 0
4.54545 0.125 0
4.44444 0.125 0
4.54545 0.125 0
4.44444 0.25 0
4.54545 0.25 0
4.54545 0 0
4.64646 0 0
4.54545 0.125 0
4.64646 0.125 0
4.54545 0.125 0
4.64646 0.125 0
4.54545 0.25 0
4.64646 0.25 0
4.64646 0 0
4.74747 0 0
4.64646 0.125 0
4.74747 0.125 0
4.64646 0.125 0
4.74747 0.125 0
4.64646 0.25 0
4.74747 0.25 0
4.74747 0 0
4.84848 0 0
4.74747 0.125 0
4.84848 0.125 0
4.74747 0.125 0
4.84848 0.125 0
4.74747 0.25 0
4.84848 0.25 0
4.84848 0 0
4.94949 0 0
4.84848 0.125 0
4.94949 0.125 0
4.84848 0.125 0
4.94949 0.125 0
4.84848 0.25 0
4.94949 0.25 0
4.94949 0 0
5.05051 0 0
4.94949 0.125 0
5.05051 0.125 0
4.94949 0.125 0
5.05051 0.125 0
4.94949 0.25 0
5.05051 0.25 0
5.05051 0 0
5.15152 0 0
5.05051 0.125 0
5.15152 0.125 0
5.05051 0.125 0
5.15152 0.125 0
5.05051 0.25 0
5.15152 0.25 0
5.15152 0 0
5.25253 0 0
5.15152 0.125 0
5.25253 0.125 0
5.15152 0.125 0
5.25253 0.125 0
5.15152 0.25 0
5.25253 0.25 0
5.25253 0 0
5.35354 0 0
5.25253 0.125 0
5.35354 0.125 0
5.25253 0.125 0
5.35354 0.125 0
5.25253 0.25 0
5.35354 0.25 0
5.35354 0 0
5.45455 0 0
5.35354 0.125 0
5.45455 0.125 0
5.35354 0.125 0
5.45455 0.125 0
5.35354 0.25 0
5.45455 0.25 0
5.45455 0 0
5.55556 0 0
5.45455 0.125 0
5.55556 0.125 0
5.45455 0.125 0
5.55556 0.125 0
5.45455 0.25 0
5.55556 0.25 0
5.55556 0 0
5.65657 0 0
5.55556 0.125 0
5.65657 0.125 0
5.55556 0.125 0
5.65657 0.125 0
5.55556 0.25 0
5.65657 0.25 0
5.65657 0 0
5.75758 0 0
5.65657 0.125 0
5.75758 0.125 0
5.65657 0.125 0
5.75758 0.125 0
5.65657 0.25 0
5.75758 0.25 0
5.75758 0 0
5.85859 0 0
5.75758 0.125 0
5.85859 0.125 0
5.75758 0.125 0
5.85859 0.125 0
5.75758 0.25 0
5.85859 0.25 0
5.85859 0 0
5.9596 0 0
5.85859 0.125 0
5.9596 0.125 0
5.85859 0.125 0
5.9596 0.125 0
5.85859 0.25 0
5.9596 0.25 0
5.9596 0 0
6.06061 0 0
5.9596 0.125 0
6.06061 0.125 0
5.9596 0.125 0
6.06061 0.125 0
5.9596 0.25 0
6.06061 0.25 0
6.06061 0 0
6.16162 0 0
6.06061 0.125 0
6.16162 0.125 0
6.06061 0.125 0
6.16162 0.125 0
6.06061 0.25 0
6.16162 0.25 0
6.16162 0 0
6.26263 0 0
6.16162 0.125 0
6.26263 0.125 0
6.16162 0.125 0
6.26263 0.125 0
6.16162 0.25 0
6.26263 0.25 0
6.26263 0 0
6.36364 0 0
6.26263 0.125 0
6.36364 0.125 0
6.26263 0.125 0
6.36364 0.125 0
6.26263 0.25 0
6.36364 0.25 0
6.36364 0 0
6.46465 0 0
6.36364 0.125 0
6.46465 0.125 0
6.36364 0.125 0
6.46465 0.125 0
6.36364 0.25 0
6.46465 0.25 0
6.46465 0 0
6.56566 0 0
6.46465 0.125 0
6.56566 0.125 0
6.46465 0.125 0
6.56566 0.125 0
6.46465 0.25 0
6.56566 0.25 0
6.56566 0 0
6.66667 0 0
6.56566 0.125 0
6.66667 0.125 0
6.56566 0.125 0
6.66667 0.125 0
6.56566 0.25 0
6.66667 0.25 0
6.66667 0 0
6.76768 0 0
6.66667 0.125 0
6.76768 0.125 0
6.66667 0.125 0
6.76768 0.125 0
6.66667 0.25 0
6.76768 0.25 0
6.76768 0 0
6.86869 0 0
6.76768 0.125 0
6.86869 0.125 0
6.76768 0.125 0
6.86869 0.125 0
6.76768 0.25 0
6.86869 0.25 0
6.86869 0 0
6.9697 0 0
6.86869 0.125 0
6.9697 0.125 0
6.86869 0.125 0
6.9697 0.125 0
6.86869 0.25 0
6.9697 0.25 0
6.9697 0 0
7.07071 0 0
6.9697 0.125 0
7.07071 0.125 0
6.9697 0.125 0
7.07071 0.125 0
6.9697 0.25 0
7.07071 0.25 0
7.07071 0 0
7.17172 0 0
7.07071 0.125 0
7.17172 0.125 0
7.07071 0.125 0
7.17172 0.125 0
7.07071 0.25 0
7.17172 0.25 0
7.17172 0 0
7.27273 0 0
7.17172 0.125 0
7.27273 0.125 0
7.17172 0.125 0
7.27273 0.125 0
7.17172 0.25 0
7.27273 0.25 0
7.27273 0 0
7.37374 0 0
7.27273 0.125 0
7.37374 0.125 0
7.27273 0.125 0
7.37374 0.125 0
7.27273 0.25 0
7.37374 0.25 0
7.37374 0 0
7.47475 0 0
7.37374 0.125 0
7.47475 0.125 0
7.37374 0.125 0
7.47475 0.125 0
7.37374 0.25 0
7.47475 0.25 0
7.47475 0 0
7.57576 0 0
7.47475 0.125 0
7.57576 0.125 0
7.47475 0.125 0
7.57576 0.125 0
7.47475 0.25 0
7.57576 0.25 0
7.57576 0 0
7.67677 0 0
7.57576 0.125 0
7.67677 0.125 0
7.57576 0.125 0
7.67677 0.125 0
7.57576 0.25 0
7.67677 0.25 0
7.67677 0 0
7.77778 0 0
7.67677 0.125 0
7.77778 0.125 0
7.67677 0.125 0
7.77778 0.125 0
7.67677 0.25 0
7.77778 0.25 0
7.77778 0 0
7.87879 0 0
7.77778 0.125 0
7.87879 0.125 0
7.77778 0.125 0
7.87879 0.125 0
7.77778 0.25 0
7.87879 0.25 0
7.87879 0 0
7.9798 0 0
7.87879 0.125 0
7.9798 0.125 0
7.87879 0.125 0
7.9798 0.125 0
7.87879 0.25 0
7.9798 0.25 0
7.9798 0 0
8.08081 0 0
7.9798 0.125 0
8.08081 0.125 0
7.9798 0.125 0
8.08081 0.125 0
7.9798 0.25 0
8.08081 0.25 0
8.08081 0 0
8.18182 0 0
8.08081 0.125 0
8.18182 0.125 0
8.08081 0.125 0
8.18182 0.125 0
8.08081 0.25 0
8.18182 0.25 0
8.18182 0 0
8.28283 0 0
8.18182 0.125 0
8.28283 0.125 0
8.18182 0.125 0
8.28283 0.125 0
8.18182 0.25 0
8.28283 0.25 0
8.28283 0 0
8.38384 0 0
8.28283 0.125 0
8.38384 0.125 0
8.28283 0.125 0
8.38384 0.125 0
8.28283 0.25 0
8.38384 0.25 0
8.38384 0 0
8.48485 0 0
8.38384 0.125 0
8.48485 0.125 0
8.38384 0.125 0
8.48485 0.125 0
8.38384 0.25 0
8.48485 0.25 0
8.48485 0 0
8.58586 0 0
8.48485 0.125 0
8.58586 0.125 0
8.48485 0.125 0
8.58586 0.125 0
8.48485 0.25 0
8.58586 0.25 0
8.58586 0 0
8.68687 0 0
8.58586 0.125 0
8.68687 0.125 0
8.58586 0.125 0
8.68687 0.125 0
8.58586 0.25 0
8.68687 0.25 0
8.68687 0 0
8.78788 0 0
8.68687 0.125 0
8.78788 0.125 0
[...]
POINT_DATA 60192
VECTORS velocity double
0 0 0
0 0 0
0 0 0
0 0 0
0 0 0
0 0 0
0 0 0
0 0 0
0 0 0
0 0 0
0 0 0
0 0 0
0 0 0
0 0 0
0 0 0
0 0 0
0 0 0
0 0 0
0 0 0
0 0 0
0 0 0
0 0 0
0 0 0
0 0 0
0 0 0
0 0 0
0 0 0
0 0 0
0 0 0
0 0 0
0 0 0
0 0 0
0 0 0
0 0 0
0 0 0
0 0 0
0 0 0
0 0 0
0 0 0
0 0 0
0 0 0
0 0 0
0 0 0
0 0 0
0 0 0
0 0 0
0 0 0
0 0 0
0 0 0
0 0 0
0 0 0
0 0 0
0 0 0
0 0 0
0 0 0
0 0 0
0 0 0
0 0 0
0 0 0
0 0 0
0 0 0
0 0 0
0 0 0
0 0 0
0 0 0
0 0 0
0 0 0
0 0 0
0 0 0
0 0 0
0 0 0
0 0 0
0 0 0
0 0 0
0 0 0
0 0 0
0 0 0
0 0 0
0 0 0
0 0 0
0 0 0
0 0 0
0 0 0
0 0 0
0 0 0
0 0 0
0 0 0
0 0 0
0 0 0
0 0 0
0 0 0
0 0 0
0 0 0
0 0 0
0 0 0
0 0 0
0 0 0
0 0 0
0 0 0
0 0 0
0 0 0
0 0 0
0 0 0
0 0 0
0 0 0
0 0 0
0 0 0
0 0 0
0 0 0
0 0 0
0 0 0
0 0 0
0 0 0
0 0 0
0 0 0
0 0 0
0 0 0
0 0 0
0 0 0
0 0 0
0 0 0
0 0 0
0 0 0
0 0 0
0 0 0
0 0 0
0 0 0
0 0 0
0 0 0
0 0 0
0 0 0
0 0 0
0 0 0
0 0 0
0 0 0
0 0 0
0 0 0
0 0 0
0 0 0
0 0 0
0 0 0
0 0 0
0 0 0
0 0 0
0 0 0
0 0 0
0 0 0
0 0 0
0 0 0
0 0 0
0 0 0
0 0 0
0 0 0
0 0 0
0 0 0
0 0 0
0 0 0
0 0 0
0 0 0
0 0 0
0 0 0
0 0 0
0 0 0
0 0 0
0 0 0
0 0 0
0 0 0
0 0 0
0 0 0
0 0 0
0 0 0
0 0 0
0 0 0
0 0 0
0 0 0
0 0 0
0 0 0
0 0 0
0 0 0
0 0 0
0 0 0
0 0 0
0 0 0
0 0 0
0 0 0
0 0 0
0 0 0
0 0 0
0 0 0
0 0 0
0 0 0
0 0 0
0 0 0
0 0 0
0 0 0
0 0 0
0 0 0
0 0 0
0 0 0
0 0 0
0 0 0
0 0 0
0 0 0
0 0 0
0 0 0
0 0 0
0 0 0
0 0 0
0 0 0
0 0 0
0 0 0
0 0 0
0 0 0
0 0 0
0 0 0
0 0 0
0 0 0
0 0 0
0 0 0
0 0 0
0 0 0
0 0 0
0 0 0
0 0 0
0 0 0
0 0 0
0 0 0
0 0 0
0 0 0
0 0 0
0 0 0
0 0 0
0 0 0
0 0 0
0 0 0
0 0 0
0 0 0
0 0 0
0 0 0
0 0 0
0 0 0
0 0 0
0 0 0
0 0 0
0 0 0
0 0 0
0 0 0
0 0 0
0 0 0
0 0 0
0 0 0
0 0 0
0 0 0
0 0 0
0 0 0
0 0 0
0 0 0
0 0 0
0 0 0
0 0 0
0 0 0
0 0 0
0 0 0
0 0 0
0 0 0
0 0 0
0 0 0
0 0 0
0 0 0
0 0 0
0 0 0
0 0 0
0 0 0
0 0 0
0 0 0
0 0 0
0 0 0
0 0 0
0 0 0
0 0 0
0 0 0
0 0 0
0 0 0
0 0 0
0 0 0
0 0 0
0 0 0
0 0 0
0 0 0
0 0 0
0 0 0
0 0 0
0 0 0
0 0 0
0 0 0
0 0 0
0 0 0
0 0 0
0 0 0
0 0 0
0 0 0
0 0 0
0 0 0
0 0 0
0 0 0
0 0 0
0 0 0
0 0 0
0 0 0
0 0 0
0 0 0
0 0 0
0 0 0
0 0 0
0 0 0
0 0 0
0 0 0
0 0 0
0 0 0
0 0 0
0 0 0
0 0 0
0 0 0
0 0 0
0 0 0
0 0 0
0 0 0
0 0 0
0 0 0
0 0 0
0 0 0
0 0 0
0 0 0
0 0 0
0 0 0
0 0 0
0 0 0
0 0 0
0 0 0
0 0 0
0 0 0
0 0 0
0 0 0
0 0 0
0 0 0
0 0 0
0 0 0
0 0 0
0 0 0
0 0 0
0 0 0
0 0 0
0 0 0
0 0 0
0 0 0
0 0 0
0 0 0
0 0 0
0 0 0
0 0 0
0 0 0
0 0 0
0 0 0
0 0 0
0 0 0
0 0 0
0 0 0
0 0 0
0 0 0
0 0 0
0 0 0
0 0 0
0 0 0
0 0 0
0 0 0
0 0 0
0 0 0
0 0 0
0 0 0
0 0 0
0 0 0
0 0 0
0 0 0
0 0 0
0 0 0
0 0 0
0 0 0
0 0 0
0 0 0
0 0 0
0 0 0
0 0 0
0 0 0
0 0 0
0 0 0
0 0 0
0 0 0
0 0 0
0 0 0
0 0 0
0 0 0
0 0 0
0 0 0
0 0 0
0 0 0
0 0 0
0 0 0
0 0 0
0 0 0
0 0 0
0 0 0
0 0 0
0 0 0
0 0 0
0 0 0
0 0 0
0 0 0
0 0 0
0 0 0
0 0 0
0 0 0
0 0 0
0 0 0
0 0 0
0 0 0
0 0 0
0 0 0
0 0 0
0 0 0
0 0 0
0 0 0
0 0 0
0 0 0
0 0 0
0 0 0
0 0 0
0 0 0
0 0 0
0 0 0
0 0 0
0 0 0
0 0 0
0 0 0
0 0 0
0 0 0
0 0 0
0 0 0
0 0 0
0 0 0
0 0 0
0 0 0
0 0 0
0 0 0
0 0 0
0 0 0
0 0 0
0 0 0
0 0 0
0 0 0
0 0 0
0 0 0
0 0 0
0 0 0
0 0 0
0 0 0
0 0 0
0 0 0
0 0 0
0 0 0
0 0 0
0 0 0
0 0 0
0 0 0
0 0 0
0 0 0
0 0 0
0 0 0
0 0 0
0 0 0
0 0 0
0 0 0
0 0 0
0 0 0
0 0 0
0 0 0
0 0 0
0 0 0
0 0 0
0 0 0
0 0 0
0 0 0
0 0 0
0 0 0
0 0 0
0 0 0
0 0 0
0 0 0
0 0 0
0 0 0
0 0 0
0 0 0
0 0 0
0 0 0
0 0 0
0 0 0
0 0 0
0 0 0
0 0 0
0 0 0
0 0 0
0 0 0
0 0 0
0 0 0
0 0 0
0 0 0
0 0 0
0 0 0
0 0 0
0 0 0
0 0 0
0 0 0
0 0 0
0 0 0
0 0 0
0 0 0
0 0 0
0 0 0
0 0 0
0 0 0
0 0 0
0 0 0
0 0 0
0 0 0
0 0 0
0 0 0
0 0 0
0 0 0
0 0 0
0 0 0
0 0 0
0 0 0
0 0 0
0 0 0
0 0 0
0 0 0
0 0 0
0 0 0
0 0 0
0 0 0
0 0 0
0 0 0
0 0 0
0 0 0
0 0 0
0 0 0
0 0 0
0 0 0
0 0 0
0 0 0
0 0 0
0 0 0
0 0 0
0 0 0
0 0 0
0 0 0
0 0 0
0 0 0
0 0 0
0 0 0
0 0 0
0 0 0
0 0 0
0 0 0
0 0 0
0 0 0
0 0 0
0 0 0
0 0 0
0 0 0
0 0 0
0 0 0
0 0 0
0 0 0
0 0 0
0 0 0
0 0 0
0 0 0
0 0 0
0 0 0
0 0 0
0 0 0
0 0 0
0 0 0
0 0 0
0 0 0
0 0 0
0 0 0
0 0 0
0 0 0
0 0 0
0 0 0
0 0 0
0 0 0
0 0 0
0 0 0
0 0 0
0 0 0
0 0 0
0 0 0
0 0 0
0 0 0
0 0 0
0 0 0
0 0 0
0 0 0
0 0 0
0 0 0
0 0 0
0 0 0
0 0 0
0 0 0
0 0 0
0 0 0
0 0 0
0 0 0
0 0 0
0 0 0
0 0 0
0 0 0
0 0 0
0 0 0
0 0 0
0 0 0
0 0 0
0 0 0
0 0 0
0 0 0
0 0 0
0 0 0
0 0 0
0 0 0
0 0 0
0 0 0
0 0 0
0 0 0
0 0 0
0 0 0
0 0 0
0 0 0
0 0 0
0 0 0
0 0 0
0 0 0
0 0 0
0 0 0
0 0 0
0 0 0
0 0 0
0 0 0
0 0 0
0 0 0
0 0 0
0 0 0
0 0 0
0 0 0
0 0 0
0 0 0
0 0 0
0 0 0
0 0 0
0 0 0
0 0 0
0 0 0
0 0 0
0 0 0
0 0 0
0 0 0
0 0 0
0 0 0
0 0 0
0 0 0
0 0 0
0 0 0
0 0 0
0 0 0
0 0 0
0 0 0
0 0 0
0 0 0
0 0 0
0 0 0
0 0 0
0 0 0
0 0 0
0 0 0
0 0 0
0 0 0
0 0 0
0 0 0
0 0 0
0 0 0
0 0 0
0 0 0
0 0 0
0 0 0
0 0 0
0 0 0
0 0 0
0 0 0
0 0 0
0 0 0
0 0 0
0 0 0
0 0 0
0 0 0
0 0 0
0 0 0
0 0 0
0 0 0
0 0 0
0 0 0
0 0 0
0 0 0
0 0 0
0 0 0
0 0 0
0 0 0
0 0 0
0 0 0
0 0 0
0 0 0
0 0 0
0 0 0
0 0 0
0 0 0
0 0 0
0 0 0
0 0 0
0 0 0
0 0 0
0 0 0
0 0 0
0 0 0
0 0 0
0 0 0
0 0 0
0 0 0
0 0 0
0 0 0
0 0 0
0 0 0
0 0 0
0 0 0
0 0 0
0 0 0
0 0 0
0 0 0
0 0 0
0 0 0
0 0 0
0 0 0
0 0 0
0 0 0
0 0 0
0 0 0
0 0 0
0 0 0
0 0 0
1.7284 2.20245e-17 0
1.7284 -1.09085e-16 0
2.22222 1.97945e-16 0
2.22222 1.19194e-16 0
2.22222 1.97945e-16 0
2.22222 1.19194e-16 0
2.46914 -4.15855e-16 0
2.46914 2.6367e-16 0
2.46914 -4.15855e-16 0
2.46914 2.6367e-16 0
2.46914 5.05801e-16 0
2.46914 -1.57195e-16 0
2.46914 5.05801e-16 0
2.46914 -1.57195e-16 0
2.22222 -1.01888e-16 0
2.22222 3.14884e-16 0
1.7284 -1.09085e-16 0
1.7284 -2.29164e-16 0
2.22222 1.19194e-16 0
2.22222 1.93388e-16 0
2.22222 1.19194e-16 0
2.22222 1.93388e-16 0
2.46914 2.6367e-16 0
2.46914 3.71395e-17 0
2.46914 2.6367e-16 0
2.46914 3.71395e-17 0
2.46914 -1.57195e-16 0
2.46914 6.58585e-16 0
2.46914 -1.57195e-16 0
2.46914 6.58585e-16 0
2.22222 3.14884e-16 0
2.22222 -1.32439e-16 0
1.7284 -2.29164e-16 0
1.7284 1.34805e-16 0
2.22222 1.93388e-16 0
2.22222 3.50969e-16 0
2.22222 1.93388e-16 0
2.22222 3.50969e-16 0
2.46914 3.71395e-17 0
2.46914 3.05341e-16 0
2.46914 3.71395e-17 0
2.46914 3.05341e-16 0
2.46914 6.58585e-16 0
2.46914 -3.51165e-16 0
2.46914 6.58585e-16 0
2.46914 -3.51165e-16 0
2.22222 -1.32439e-16 0
2.22222 1.0561e-17 0
1.7284 1.34805e-16 0
1.7284 1.8774e-16 0
2.22222 3.50969e-16 0
2.22222 3.39699e-17 0
2.22222 3.50969e-16 0
2.22222 3.39699e-17 0
2.46914 3.05341e-16 0
2.46914 7.25313e-17 0
2.46914 3.05341e-16 0
2.46914 7.25313e-17 0
2.46914 -3.51165e-16 0
2.46914 -9.32031e-17 0
2.46914 -3.51165e-16 0
2.46914 -9.32031e-17 0
2.22222 1.0561e-17 0
2.22222 3.83972e-16 0
1.7284 1.8774e-16 0
1.7284 1.12184e-16 0
2.22222 3.39699e-17 0
2.22222 4.81251e-16 0
2.22222 3.39699e-17 0
2.22222 4.81251e-16 0
2.46914 7.25313e-17 0
2.46914 -4.96501e-16 0
2.46914 7.25313e-17 0
2.46914 -4.96501e-16 0
2.46914 -9.32031e-17 0
2.46914 3.70978e-16 0
2.46914 -9.32031e-17 0
2.46914 3.70978e-16 0
2.22222 3.83972e-16 0
2.22222 -8.33248e-17 0
2.22222 3.83972e-16 0
2.22222 -8.33248e-17 0
1.7284 2.3036e-16 0
1.7284 6.59031e-17 0
1.7284 1.12184e-16 0
1.7284 -9.1645e-17 0
2.22222 4.81251e-16 0
2.22222 -5.12247e-18 0
2.22222 4.81251e-16 0
2.22222 -5.12247e-18 0
2.46914 -4.96501e-16 0
2.46914 4.60101e-16 0
2.46914 -4.96501e-16 0
2.46914 4.60101e-16 0
2.46914 3.70978e-16 0
2.46914 -3.43279e-16 0
2.46914 3.70978e-16 0
2.46914 -3.43279e-16 0
2.22222 -8.33248e-17 0
2.22222 4.58153e-16 0
2.22222 -8.33248e-17 0
2.22222 4.58153e-16 0
1.7284 6.59031e-17 0
1.7284 2.31801e-16 0
1.7284 -9.1645e-17 0
1.7284 9.68615e-17 0
2.22222 -5.12247e-18 0
2.22222 3.43021e-16 0
2.22222 -5.12247e-18 0
2.22222 3.43021e-16 0
2.46914 4.60101e-16 0
2.46914 -1.06647e-16 0
2.46914 4.60101e-16 0
2.46914 -1.06647e-16 0
2.46914 -3.43279e-16 0
2.46914 2.69794e-16 0
2.46914 -3.43279e-16 0
2.46914 2.69794e-16 0
2.22222 4.58153e-16 0
2.22222 -1.39544e-16 0
2.22222 4.58153e-16 0
2.22222 -1.39544e-16 0
1.7284 2.31801e-16 0
1.7284 -1.69982e-16 0
1.7284 9.68615e-17 0
1.7284 4.73105e-16 0
2.22222 3.43021e-16 0
2.22222 1.90671e-16 0
2.22222 3.43021e-16 0
2.22222 1.90671e-16 0
2.46914 -1.06647e-16 0
2.46914 -3.20752e-16 0
2.46914 -1.06647e-16 0
2.46914 -3.20752e-16 0
2.46914 2.69794e-16 0
2.46914 -3.3746e-16 0
2.46914 2.69794e-16 0
2.46914 -3.3746e-16 0
2.22222 -1.39544e-16 0
2.22222 1.53545e-16 0
2.22222 -1.39544e-16 0
2.22222 1.53545e-16 0
1.7284 -1.69982e-16 0
1.7284 2.38231e-16 0
1.7284 4.73105e-16 0
1.7284 -1.33504e-16 0
2.22222 1.90671e-16 0
2.22222 3.25828e-16 0
2.22222 1.90671e-16 0
2.22222 3.25828e-16 0
2.46914 -3.20752e-16 0
2.46914 -5.27098e-17 0
2.46914 -3.20752e-16 0
2.46914 -5.27098e-17 0
2.46914 -3.3746e-16 0
2.46914 1.99277e-16 0
2.46914 -3.3746e-16 0
2.46914 1.99277e-16 0
2.22222 1.53545e-16 0
2.22222 -2.80519e-16 0
2.22222 1.53545e-16 0
2.22222 -2.80519e-16 0
1.7284 2.38231e-16 0
1.7284 7.27577e-16 0
1.7284 -1.33504e-16 0
1.7284 -1.21111e-16 0
2.22222 3.25828e-16 0
2.22222 1.01175e-17 0
2.22222 3.25828e-16 0
2.22222 1.01175e-17 0
2.46914 -5.27098e-17 0
2.46914 4.01227e-16 0
2.46914 -5.27098e-17 0
2.46914 4.01227e-16 0
2.46914 1.99277e-16 0
2.46914 -7.63804e-17 0
2.46914 1.99277e-16 0
2.46914 -7.63804e-17 0
2.22222 -2.80519e-16 0
2.22222 3.50105e-16 0
2.22222 -2.80519e-16 0
2.22222 3.50105e-16 0
1.7284 7.27577e-16 0
1.7284 3.24677e-16 0
1.7284 -1.21111e-16 0
1.7284 6.72918e-16 0
2.22222 1.01175e-17 0
2.22222 1.12879e-17 0
2.22222 1.01175e-17 0
2.22222 1.12879e-17 0
2.46914 4.01227e-16 0
2.46914 -3.42134e-16 0
2.46914 4.01227e-16 0
2.46914 -3.42134e-16 0
2.46914 -7.63804e-17 0
2.46914 4.71559e-17 0
2.46914 -7.63804e-17 0
2.46914 4.71559e-17 0
2.22222 3.50105e-16 0
2.22222 1.23886e-16 0
2.22222 3.50105e-16 0
2.22222 1.23886e-16 0
1.7284 3.24677e-16 0
1.7284 1.26828e-16 0
1.7284 6.72918e-16 0
1.7284 2.67956e-16 0
2.22222 1.12879e-17 0
2.22222 -3.44829e-16 0
2.22222 1.12879e-17 0
2.22222 -3.44829e-16 0
2.46914 -3.42134e-16 0
2.46914 1.42754e-16 0
2.46914 -3.42134e-16 0
2.46914 1.42754e-16 0
2.46914 4.71559e-17 0
2.46914 -2.11367e-16 0
2.46914 4.71559e-17 0
2.46914 -2.11367e-16 0
2.22222 1.23886e-16 0
2.22222 3.06448e-16 0
2.22222 1.23886e-16 0
2.22222 3.06448e-16 0
1.7284 1.26828e-16 0
1.7284 1.05917e-16 0
1.7284 2.67956e-16 0
1.7284 1.23288e-17 0
2.22222 -3.44829e-16 0
2.22222 2.66051e-18 0
2.22222 -3.44829e-16 0
2.22222 2.66051e-18 0
2.46914 1.42754e-16 0
2.46914 -9.53433e-17 0
2.46914 1.42754e-16 0
2.46914 -9.53433e-17 0
2.46914 -2.11367e-16 0
2.46914 6.00607e-16 0
2.46914 -2.11367e-16 0
2.46914 6.00607e-16 0
2.22222 3.06448e-16 0
2.22222 1.23151e-16 0
2.22222 3.06448e-16 0
2.22222 1.23151e-16 0
1.7284 1.05917e-16 0
1.7284 2.31787e-17 0
1.7284 1.23288e-17 0
1.7284 2.73011e-16 0
2.22222 2.66051e-18 0
2.22222 1.56991e-16 0
2.22222 2.66051e-18 0
2.22222 1.56991e-16 0
2.46914 -9.53433e-17 0
2.46914 2.09058e-17 0
2.46914 -9.53433e-17 0
2.46914 2.09058e-17 0
2.46914 6.00607e-16 0
2.46914 1.22811e-17 0
2.46914 6.00607e-16 0
2.46914 1.22811e-17 0
2.22222 1.23151e-16 0
2.22222 6.34632e-16 0
2.22222 1.23151e-16 0
2.22222 6.34632e-16 0
1.7284 2.31787e-17 0
1.7284 3.29121e-16 0
1.7284 2.73011e-16 0
1.7284 2.87167e-16 0
2.22222 1.56991e-16 0
2.22222 1.38391e-16 0
2.22222 1.56991e-16 0
2.22222 1.38391e-16 0
2.46914 2.09058e-17 0
2.46914 9.7391e-17 0
2.46914 2.09058e-17 0
2.46914 9.7391e-17 0
2.46914 1.22811e-17 0
2.46914 1.0794e-16 0
2.46914 1.22811e-17 0
2.46914 1.0794e-16 0
2.22222 6.34632e-16 0
2.22222 -9.96861e-17 0
2.22222 6.34632e-16 0
2.22222 -9.96861e-17 0
1.7284 3.29121e-16 0
1.7284 1.76333e-16 0
1.7284 2.87167e-16 0
1.7284 5.79332e-17 0
2.22222 1.38391e-16 0
2.22222 4.65696e-16 0
2.22222 1.38391e-16 0
2.22222 4.65696e-16 0
2.46914 9.7391e-17 0
2.46914 -2.73142e-17 0
2.46914 9.7391e-17 0
2.46914 -2.73142e-17 0
2.46914 1.0794e-16 0
2.46914 -4.00495e-17 0
2.46914 1.0794e-16 0
2.46914 -4.00495e-17 0
2.22222 -9.96861e-17 0
2.22222 6.44255e-16 0
2.22222 -9.96861e-17 0
2.22222 6.44255e-16 0
1.7284 1.76333e-16 0
1.7284 1.81704e-16 0
1.7284 5.79332e-17 0
1.7284 3.19819e-16 0
2.22222 4.65696e-16 0
2.22222 -1.70687e-16 0
2.22222 4.65696e-16 0
2.22222 -1.70687e-16 0
2.46914 -2.73142e-17 0
2.46914 -5.71289e-17 0
2.46914 -2.73142e-17 0
2.46914 -5.71289e-17 0
2.46914 -4.00495e-17 0
2.46914 3.68301e-16 0
2.46914 -4.00495e-17 0
2.46914 3.68301e-16 0
2.22222 6.44255e-16 0
2.22222 -1.38644e-16 0
2.22222 6.44255e-16 0
2.22222 -1.38644e-16 0
1.7284 1.81704e-16 0
1.7284 2.08143e-16 0
1.7284 3.19819e-16 0
1.7284 3.81061e-17 0
2.22222 -1.70687e-16 0
2.22222 1.65878e-16 0
2.22222 -1.70687e-16 0
2.22222 1.65878e-16 0
2.46914 -5.71289e-17 0
2.46914 7.45431e-17 0
2.46914 -5.71289e-17 0
2.46914 7.45431e-17 0
2.46914 3.68301e-16 0
2.46914 -1.24691e-16 0
2.46914 3.68301e-16 0
2.46914 -1.24691e-16 0
2.22222 -1.38644e-16 0
2.22222 2.95284e-16 0
2.22222 -1.38644e-16 0
2.22222 2.95284e-16 0
1.7284 2.08143e-16 0
1.7284 3.61147e-16 0
1.7284 3.81061e-17 0
1.7284 1.13992e-17 0
2.22222 1.65878e-16 0
2.22222 4.43281e-16 0
2.22222 1.65878e-16 0
2.22222 4.43281e-16 0
2.46914 7.45431e-17 0
2.46914 -2.85024e-16 0
2.46914 7.45431e-17 0
2.46914 -2.85024e-16 0
2.46914 -1.24691e-16 0
2.46914 1.9281e-16 0
2.46914 -1.24691e-16 0
2.46914 1.9281e-16 0
2.22222 2.95284e-16 0
2.22222 3.38881e-17 0
2.22222 2.95284e-16 0
2.22222 3.38881e-17 0
1.7284 3.61147e-16 0
1.7284 5.26877e-16 0
1.7284 1.13992e-17 0
1.7284 1.85376e-16 0
2.22222 4.43281e-16 0
2.22222 -1.6295e-16 0
2.22222 4.43281e-16 0
2.22222 -1.6295e-16 0
2.46914 -2.85024e-16 0
2.46914 1.95951e-16 0
2.46914 -2.85024e-16 0
2.46914 1.95951e-16 0
2.46914 1.9281e-16 0
2.46914 -1.76918e-16 0
2.46914 1.9281e-16 0
2.46914 -1.76918e-16 0
2.22222 3.38881e-17 0
2.22222 4.05216e-16 0
2.22222 3.38881e-17 0
2.22222 4.05216e-16 0
1.7284 5.26877e-16 0
1.7284 3.6688e-17 0
1.7284 1.85376e-16 0
1.7284 2.3599e-16 0
2.22222 -1.6295e-16 0
2.22222 1.31611e-16 0
2.22222 -1.6295e-16 0
2.22222 1.31611e-16 0
2.46914 1.95951e-16 0
2.46914 -1.77426e-16 0
2.46914 1.95951e-16 0
2.46914 -1.77426e-16 0
2.46914 -1.76918e-16 0
2.46914 2.22119e-16 0
2.46914 -1.76918e-16 0
2.46914 2.22119e-16 0
2.22222 4.05216e-16 0
2.22222 -1.32939e-16 0
2.22222 4.05216e-16 0
2.22222 -1.32939e-16 0
1.7284 3.6688e-17 0
1.7284 3.65814e-16 0
1.7284 2.3599e-16 0
1.7284 3.82796e-16 0
2.22222 1.31611e-16 0
2.22222 -3.00781e-16 0
2.22222 1.31611e-16 0
2.22222 -3.00781e-16 0
2.46914 -1.77426e-16 0
2.46914 2.40143e-17 0
2.46914 -1.77426e-16 0
2.46914 2.40143e-17 0
2.46914 2.22119e-16 0
2.46914 -1.62507e-16 0
2.46914 2.22119e-16 0
2.46914 -1.62507e-16 0
2.22222 -1.32939e-16 0
2.22222 5.93807e-16 0
2.22222 -1.32939e-16 0
2.22222 5.93807e-16 0
1.7284 3.65814e-16 0
1.7284 1.08155e-16 0
1.7284 3.82796e-16 0
1.7284 -2.05675e-17 0
2.22222 -3.00781e-16 0
2.22222 -1.37998e-18 0
2.22222 -3.00781e-16 0
2.22222 -1.37998e-18 0
2.46914 2.40143e-17 0
2.46914 -1.06071e-16 0
2.46914 2.40143e-17 0
2.46914 -1.06071e-16 0
2.46914 -1.62507e-16 0
2.46914 -1.04263e-17 0
2.46914 -1.62507e-16 0
2.46914 -1.04263e-17 0
2.22222 5.93807e-16 0
2.22222 -2.78514e-16 0
2.22222 5.93807e-16 0
2.22222 -2.78514e-16 0
1.7284 1.08155e-16 0
1.7284 1.25945e-16 0
1.7284 -2.05675e-17 0
1.7284 -3.65242e-16 0
2.22222 -1.37998e-18 0
2.22222 4.50841e-16 0
2.22222 -1.37998e-18 0
2.22222 4.50841e-16 0
2.46914 -1.06071e-16 0
2.46914 1.23031e-16 0
2.46914 -1.06071e-16 0
2.46914 1.23031e-16 0
2.46914 -1.04263e-17 0
2.46914 -1.31802e-16 0
2.46914 -1.04263e-17 0
2.46914 -1.31802e-16 0
2.22222 -2.78514e-16 0
2.22222 1.54176e-16 0
2.22222 -2.78514e-16 0
2.22222 1.54176e-16 0
1.7284 1.25945e-16 0
1.7284 -8.49022e-17 0
1.7284 -3.65242e-16 0
1.7284 1.54044e-16 0
2.22222 4.50841e-16 0
2.22222 -3.66143e-17 0
2.22222 4.50841e-16 0
2.22222 -3.66143e-17 0
2.46914 1.23031e-16 0
2.46914 3.62255e-16 0
2.46914 1.23031e-16 0
2.46914 3.62255e-16 0
2.46914 -1.31802e-16 0
2.46914 -1.7922e-16 0
2.46914 -1.31802e-16 0
2.46914 -1.7922e-16 0
2.22222 1.54176e-16 0
2.22222 2.25057e-16 0
2.22222 1.54176e-16 0
2.22222 2.25057e-16 0
1.7284 -8.49022e-17 0
1.7284 1.23415e-16 0
1.7284 1.54044e-16 0
1.7284 -3.92862e-17 0
2.22222 -3.66143e-17 0
2.22222 -1.66354e-16 0
2.22222 -3.66143e-17 0
2.22222 -1.66354e-16 0
2.46914 3.62255e-16 0
2.46914 2.38313e-16 0
2.46914 3.62255e-16 0
2.46914 2.38313e-16 0
2.46914 -1.7922e-16 0
2.46914 -1.6748e-16 0
2.46914 -1.7922e-16 0
2.46914 -1.6748e-16 0
2.22222 2.25057e-16 0
2.22222 3.69616e-16 0
2.22222 2.25057e-16 0
2.22222 3.69616e-16 0
1.7284 1.23415e-16 0
1.7284 4.0925e-17 0
1.7284 -3.92862e-17 0
1.7284 3.96422e-16 0
2.22222 -1.66354e-16 0
2.22222 2.50776e-16 0
2.22222 -1.66354e-16 0
2.22222 2.50776e-16 0
2.46914 2.38313e-16 0
2.46914 -3.78442e-16 0
2.46914 2.38313e-16 0
2.46914 -3.78442e-16 0
2.46914 -1.6748e-16 0
2.46914 1.50929e-16 0
2.46914 -1.6748e-16 0
2.46914 1.50929e-16 0
2.22222 3.69616e-16 0
2.22222 4.13455e-16 0
2.22222 3.69616e-16 0
2.22222 4.13455e-16 0
1.7284 4.0925e-17 0
1.7284 1.03946e-16 0
1.7284 3.96422e-16 0
1.7284 1.06376e-16 0
2.22222 2.50776e-16 0
2.22222 3.00156e-16 0
2.22222 2.50776e-16 0
2.22222 3.00156e-16 0
2.46914 -3.78442e-16 0
2.46914 3.65778e-16 0
2.46914 -3.78442e-16 0
2.46914 3.65778e-16 0
2.46914 1.50929e-16 0
2.46914 -2.04632e-16 0
2.46914 1.50929e-16 0
2.46914 -2.04632e-16 0
2.22222 4.13455e-16 0
2.22222 1.95457e-16 0
2.22222 4.13455e-16 0
2.22222 1.95457e-16 0
1.7284 1.03946e-16 0
1.7284 1.26211e-16 0
1.7284 1.06376e-16 0
1.7284 1.883e-16 0
2.22222 3.00156e-16 0
2.22222 4.24539e-16 0
2.22222 3.00156e-16 0
2.22222 4.24539e-16 0
2.46914 3.65778e-16 0
2.46914 -1.24088e-16 0
2.46914 3.65778e-16 0
2.46914 -1.24088e-16 0
2.46914 -2.04632e-16 0
2.46914 2.16765e-16 0
2.46914 -2.04632e-16 0
2.46914 2.16765e-16 0
2.22222 1.95457e-16 0
2.22222 8.41848e-17 0
2.22222 1.95457e-16 0
2.22222 8.41848e-17 0
1.7284 1.26211e-16 0
1.7284 -1.85937e-16 0
1.7284 1.883e-16 0
1.7284 -1.70889e-17 0
2.22222 4.24539e-16 0
2.22222 2.90302e-17 0
2.22222 4.24539e-16 0
2.22222 2.90302e-17 0
2.46914 -1.24088e-16 0
2.46914 1.97358e-16 0
2.46914 -1.24088e-16 0
2.46914 1.97358e-16 0
2.46914 2.16765e-16 0
2.46914 3.22301e-18 0
2.46914 2.16765e-16 0
2.46914 3.22301e-18 0
2.22222 8.41848e-17 0
2.22222 2.06671e-16 0
2.22222 8.41848e-17 0
2.22222 2.06671e-16 0
1.7284 -1.85937e-16 0
1.7284 -2.47841e-16 0
1.7284 -1.70889e-17 0
1.7284 8.70309e-17 0
2.22222 2.90302e-17 0
2.22222 -3.38684e-16 0
2.22222 2.90302e-17 0
2.22222 -3.38684e-16 0
2.46914 1.97358e-16 0
2.46914 1.9189e-17 0
2.46914 1.97358e-16 0
2.46914 1.9189e-17 0
2.46914 3.22301e-18 0
2.46914 7.06808e-16 0
2.46914 3.22301e-18 0
2.46914 7.06808e-16 0
2.22222 2.06671e-16 0
2.22222 -3.32435e-16 0
2.22222 2.06671e-16 0
2.22222 -3.32435e-16 0
1.7284 -2.47841e-16 0
1.7284 -4.40911e-18 0
1.7284 8.70309e-17 0
1.7284 7.23267e-17 0
2.22222 -3.38684e-16 0
2.22222 3.51736e-16 0
2.22222 -3.38684e-16 0
2.22222 3.51736e-16 0
2.46914 1.9189e-17 0
2.46914 -1.88771e-16 0
2.46914 1.9189e-17 0
2.46914 -1.88771e-16 0
2.46914 7.06808e-16 0
2.46914 2.04629e-16 0
2.46914 7.06808e-16 0
2.46914 2.04629e-16 0
2.22222 -3.32435e-16 0
2.22222 3.34261e-16 0
2.22222 -3.32435e-16 0
2.22222 3.34261e-16 0
1.7284 -4.40911e-18 0
1.7284 1.89684e-16 0
1.7284 7.23267e-17 0
1.7284 -1.21725e-16 0
2.22222 3.51736e-16 0
2.22222 -3.24279e-18 0
2.22222 3.51736e-16 0
2.22222 -3.24279e-18 0
2.46914 -1.88771e-16 0
2.46914 2.68491e-16 0
2.46914 -1.88771e-16 0
2.46914 2.68491e-16 0
2.46914 2.04629e-16 0
2.46914 -2.19614e-16 0
2.46914 2.04629e-16 0
2.46914 -2.19614e-16 0
2.22222 3.34261e-16 0
2.22222 -1.3353e-16 0
2.22222 3.34261e-16 0
2.22222 -1.3353e-16 0
1.7284 1.89684e-16 0
1.7284 1.48427e-16 0
1.7284 -1.21725e-16 0
1.7284 1.2297e-16 0
2.22222 -3.24279e-18 0
2.22222 8.63704e-17 0
2.22222 -3.24279e-18 0
2.22222 8.63704e-17 0
2.46914 2.68491e-16 0
2.46914 -1.57139e-16 0
2.46914 2.68491e-16 0
2.46914 -1.57139e-16 0
2.46914 -2.19614e-16 0
2.46914 3.02843e-16 0
2.46914 -2.19614e-16 0
2.46914 3.02843e-16 0
2.22222 -1.3353e-16 0
2.22222 4.63397e-16 0
2.22222 -1.3353e-16 0
2.22222 4.63397e-16 0
1.7284 1.48427e-16 0
1.7284 3.18439e-16 0
1.7284 1.2297e-16 0
1.7284 1.76523e-16 0
2.22222 8.63704e-17 0
2.22222 3.00715e-16 0
2.22222 8.63704e-17 0
2.22222 3.00715e-16 0
2.46914 -1.57139e-16 0
2.46914 1.57964e-16 0
2.46914 -1.57139e-16 0
2.46914 1.57964e-16 0
2.46914 3.02843e-16 0
2.46914 -4.65985e-16 0
2.46914 3.02843e-16 0
2.46914 -4.65985e-16 0
2.22222 4.63397e-16 0
2.22222 2.82283e-16 0
2.22222 4.63397e-16 0
2.22222 2.82283e-16 0
1.7284 3.18439e-16 0
1.7284 6.32891e-17 0
1.7284 1.76523e-16 0
1.7284 5.43585e-16 0
2.22222 3.00715e-16 0
2.22222 -1.56133e-16 0
2.22222 3.00715e-16 0
2.22222 -1.56133e-16 0
2.46914 1.57964e-16 0
2.46914 -3.04668e-17 0
2.46914 1.57964e-16 0
2.46914 -3.04668e-17 0
2.46914 -4.65985e-16 0