# vtk DataFile Version 3.0
#This file was generated by the deal.II library on 2026/6/6 at 12:41:53
ASCII
DATASET UNSTRUCTURED_GRID

POINTS 100 double
0 0 0
0.2 0 0
0 0.2 0
0.2 0.2 0
0 0.2 0
0.2 0.2 0
0 0.4 0
0.2 0.4 0
0 0.4 0
0.2 0.4 0
0 0.6 0
0.2 0.6 0
0 0.6 0
0.2 0.6 0
0 0.8 0
0.2 0.8 0
0 0.8 0
0.2 0.8 0
0 1 0
0.2 1 0
0.2 0 0
0.4 0 0
0.2 0.2 0
0.4 0.2 0
0.2 0.2 0
0.4 0.2 0
0.2 0.4 0
0.4 0.4 0
0.2 0.4 0
0.4 0.4 0
0.2 0.6 0
0.4 0.6 0
0.2 0.6 0
0.4 0.6 0
0.2 0.8 0
0.4 0.8 0
0.2 0.8 0
0.4 0.8 0
0.2 1 0
0.4 1 0
0.4 0 0
0.6 0 0
0.4 0.2 0
0.6 0.2 0
0.4 0.2 0
0.6 0.2 0
0.4 0.4 0
0.6 0.4 0
0.4 0.4 0
0.6 0.4 0
0.4 0.6 0
0.6 0.6 0
0.4 0.6 0
0.6 0.6 0
0.4 0.8 0
0.6 0.8 0
0.4 0.8 0
0.6 0.8 0
0.4 1 0
0.6 1 0
0.6 0 0
0.8 0 0
0.6 0.2 0
0.8 0.2 0
0.6 0.2 0
0.8 0.2 0
0.6 0.4 0
0.8 0.4 0
0.6 0.4 0
0.8 0.4 0
0.6 0.6 0
0.8 0.6 0
0.6 0.6 0
0.8 0.6 0
0.6 0.8 0
0.8 0.8 0
0.6 0.8 0
0.8 0.8 0
0.6 1 0
0.8 1 0
0.8 0 0
1 0 0
0.8 0.2 0
1 0.2 0
0.8 0.2 0
1 0.2 0
0.8 0.4 0
1 0.4 0
0.8 0.4 0
1 0.4 0
0.8 0.6 0
1 0.6 0
0.8 0.6 0
1 0.6 0
0.8 0.8 0
1 0.8 0
0.8 0.8 0
1 0.8 0
0.8 1 0
1 1 0

CELLS 25 125
4	0	1	3	2
4	4	5	7	6
4	8	9	11	10
4	12	13	15	14
4	16	17	19	18
4	20	21	23	22
4	24	25	27	26
4	28	29	31	30
4	32	33	35	34
4	36	37	39	38
4	40	41	43	42
4	44	45	47	46
4	48	49	51	50
4	52	53	55	54
4	56	57	59	58
4	60	61	63	62
4	64	65	67	66
4	68	69	71	70
4	72	73	75	74
4	76	77	79	78
4	80	81	83	82
4	84	85	87	86
4	88	89	91	90
4	92	93	95	94
4	96	97	99	98

CELL_TYPES 25
 9 9 9 9 9 9 9 9 9 9 9 9 9 9 9 9 9 9 9 9 9 9 9 9 9
POINT_DATA 100
VECTORS velocity double
0 0 0
0.587785 0 0
0 -0.587785 0
0.478082 -0.477041 0
0 -0.587785 0
0.478082 -0.477041 0
0 -0.951057 0
0.185411 -0.771816 0
0 -0.951057 0
0.185411 -0.771816 0
0 -0.951057 0
-0.178662 -0.771086 0
0 -0.951057 0
-0.178662 -0.771086 0
0 -0.587785 0
-0.474615 -0.475656 0
0 -0.587785 0
-0.474615 -0.475656 0
0 -1.22465e-16 0
-0.587785 -9.9076e-17 0
0.587785 0 0
0.951057 0 0
0.478082 -0.477041 0
0.774022 -0.181825 0
0.478082 -0.477041 0
0.774022 -0.181825 0
0.185411 -0.771816 0
0.299091 -0.294741 0
0.185411 -0.771816 0
0.299091 -0.294741 0
-0.178662 -0.771086 0
-0.290623 -0.294973 0
-0.178662 -0.771086 0
-0.290623 -0.294973 0
-0.474615 -0.475656 0
-0.76888 -0.182249 0
-0.474615 -0.475656 0
-0.76888 -0.182249 0
-0.587785 -9.9076e-17 0
-0.951057 -3.78437e-17 0
0.951057 0 0
0.951057 0 0
0.774022 -0.181825 0
0.773264 0.183229 0
0.774022 -0.181825 0
0.773264 0.183229 0
0.299091 -0.294741 0
0.298256 0.295576 0
0.299091 -0.294741 0
0.298256 0.295576 0
-0.290623 -0.294973 0
-0.291459 0.294138 0
-0.290623 -0.294973 0
-0.291459 0.294138 0
-0.76888 -0.182249 0
-0.769639 0.180845 0
-0.76888 -0.182249 0
-0.769639 0.180845 0
-0.951057 -3.78437e-17 0
-0.951057 3.78437e-17 0
0.951057 0 0
0.587785 0 0
0.773264 0.183229 0
0.476895 0.478228 0
0.773264 0.183229 0
0.476895 0.478228 0
0.298256 0.295576 0
0.184007 0.772575 0
0.298256 0.295576 0
0.184007 0.772575 0
-0.291459 0.294138 0
-0.180066 0.770328 0
-0.291459 0.294138 0
-0.180066 0.770328 0
-0.769639 0.180845 0
-0.475802 0.474469 0
-0.769639 0.180845 0
-0.475802 0.474469 0
-0.951057 3.78437e-17 0
-0.587785 9.9076e-17 0
0.587785 0 0
1.22465e-16 0 0
0.476895 0.478228 0
9.9076e-17 0.587785 0
0.476895 0.478228 0
9.9076e-17 0.587785 0
0.184007 0.772575 0
3.78437e-17 0.951057 0
0.184007 0.772575 0
3.78437e-17 0.951057 0
-0.180066 0.770328 0
-3.78437e-17 0.951057 0
-0.180066 0.770328 0
-3.78437e-17 0.951057 0
-0.475802 0.474469 0
-9.9076e-17 0.587785 0
-0.475802 0.474469 0
-9.9076e-17 0.587785 0
-0.587785 9.9076e-17 0
-1.22465e-16 1.22465e-16 0
VECTORS velocity_error double
0 0 0
0 0 0
0 0 0
-0.00255385 0.00151238 0
0 0 0
-0.00255385 0.00151238 0
0 0 0
-0.00377497 0.00239537 0
0 0 0
-0.00377497 0.00239537 0
0 0 0
-0.00297314 0.00166529 0
0 0 0
-0.00297314 0.00166529 0
0 0 0
-0.00091337 0.000128093 0
0 0 0
-0.00091337 0.000128093 0
0 0 0
0 0 0
0 0 0
0 0 0
-0.00255385 0.00151238 0
-0.00460118 0.000188935 0
-0.00255385 0.00151238 0
-0.00460118 0.000188935 0
-0.00377497 0.00239537 0
-0.00519841 0.000848354 0
-0.00377497 0.00239537 0
-0.00519841 0.000848354 0
-0.00297314 0.00166529 0
-0.00326948 0.00108057 0
-0.00297314 0.00166529 0
-0.00326948 0.00108057 0
-0.00091337 0.000128093 0
-0.00054052 0.000612898 0
-0.00091337 0.000128093 0
-0.00054052 0.000612898 0
0 0 0
0 0 0
0 0 0
0 0 0
-0.00460118 0.000188935 0
-0.00384267 -0.00159289 0
-0.00460118 0.000188935 0
-0.00384267 -0.00159289 0
-0.00519841 0.000848354 0
-0.00436303 -0.00168373 0
-0.00519841 0.000848354 0
-0.00436303 -0.00168373 0
-0.00326948 0.00108057 0
-0.00243411 -0.000245194 0
-0.00326948 0.00108057 0
-0.00243411 -0.000245194 0
-0.00054052 0.000612898 0
0.000217991 0.000791054 0
-0.00054052 0.000612898 0
0.000217991 0.000791054 0
0 0 0
0 0 0
0 0 0
0 0 0
-0.00384267 -0.00159289 0
-0.00136652 -0.00269971 0
-0.00384267 -0.00159289 0
-0.00136652 -0.00269971 0
-0.00436303 -0.00168373 0
-0.00237102 -0.00315388 0
-0.00436303 -0.00168373 0
-0.00237102 -0.00315388 0
-0.00243411 -0.000245194 0
-0.00156919 -0.000906777 0
-0.00243411 -0.000245194 0
-0.00156919 -0.000906777 0
0.000217991 0.000791054 0
0.000273957 0.00105923 0
0.000217991 0.000791054 0
0.000273957 0.00105923 0
0 0 0
0 0 0
0 0 0
0 0 0
-0.00136652 -0.00269971 0
0 0 0
-0.00136652 -0.00269971 0
0 0 0
-0.00237102 -0.00315388 0
0 0 0
-0.00237102 -0.00315388 0
0 0 0
-0.00156919 -0.000906777 0
0 0 0
-0.00156919 -0.000906777 0
0 0 0
0.000273957 0.00105923 0
0 0 0
0.000273957 0.00105923 0
0 0 0
0 0 0
0 0 0
SCALARS pressure double 1
LOOKUP_TABLE default
-0.572048 -0.365503 0.256307 0.330442 0.256307 0.330442 0.961248 0.964201 0.961248 0.964201 0.96139 0.96419 0.96139 0.96419 0.256515 0.330442 0.256515 0.330442 -0.572048 -0.365711 -0.365503 -0.0531844 0.330442 0.335888 0.330442 0.335888 0.964201 0.773906 0.964201 0.773906 0.96419 0.773906 0.96419 0.773906 0.330442 0.335899 0.330442 0.335899 -0.365711 -0.0533267 -0.0531844 -0.0556968 0.335888 -0.0514068 0.335888 -0.0514068 0.773906 0.146093 0.773906 0.146093 0.773906 0.146093 0.773906 0.146093 0.335899 -0.0514177 0.335899 -0.0514177 -0.0533267 -0.0555545 -0.0556968 -0.376558 -0.0514068 -0.682251 -0.0514068 -0.682251 0.146093 -0.67972 0.146093 -0.67972 0.146093 -0.679709 0.146093 -0.679709 -0.0514177 -0.682251 -0.0514177 -0.682251 -0.0555545 -0.376349 -0.376558 -0.572798 -0.682251 -0.998367 -0.682251 -0.998367 -0.67972 -1.07013 -0.67972 -1.07013 -0.679709 -1.07027 -0.679709 -1.07027 -0.682251 -0.998576 -0.682251 -0.998576 -0.376349 -0.572798 
SCALARS pressure_error double 1
LOOKUP_TABLE default
0.572048 0.365503 0.331479 0.145086 0.331479 0.145086 -0.0101916 -0.19478 -0.0101916 -0.19478 -0.0103339 -0.19477 -0.0103339 -0.19477 0.33127 0.145086 0.33127 0.145086 0.572048 0.365711 0.365503 0.0531844 0.145086 -0.154253 0.145086 -0.154253 -0.19478 -0.480014 -0.19478 -0.480014 -0.19477 -0.480014 -0.19477 -0.480014 0.145086 -0.154263 0.145086 -0.154263 0.365711 0.0533267 0.0531844 0.0556968 -0.154253 -0.130229 -0.154253 -0.130229 -0.480014 -0.439986 -0.480014 -0.439986 -0.480014 -0.439986 -0.480014 -0.439986 -0.154263 -0.130218 -0.154263 -0.130218 0.0533267 0.0555545 0.0556968 0.376558 -0.130229 0.206723 -0.130229 0.206723 -0.439986 -0.0897009 -0.439986 -0.0897009 -0.439986 -0.0897118 -0.439986 -0.0897118 -0.130218 0.206723 -0.130218 0.206723 0.0555545 0.376349 0.376558 0.572798 0.206723 0.410582 0.206723 0.410582 -0.0897009 0.119073 -0.0897009 0.119073 -0.0897118 0.119215 -0.0897118 0.119215 0.206723 0.41079 0.206723 0.41079 0.376349 0.572798 
SCALARS temperature double 1
LOOKUP_TABLE default
0 0 0 0 0 0 0 0 0 0 0 0 0 0 0 0 0 0 0 0 0 0 0 0 0 0 0 0 0 0 0 0 0 0 0 0 0 0 0 0 0 0 0 0 0 0 0 0 0 0 0 0 0 0 0 0 0 0 0 0 0 0 0 0 0 0 0 0 0 0 0 0 0 0 0 0 0 0 0 0 0 0 0 0 0 0 0 0 0 0 0 0 0 0 0 0 0 0 0 0 
SCALARS temperature_error double 1
LOOKUP_TABLE default
0 0 0.587785 0.181636 0.587785 0.181636 0.951057 0.293893 0.951057 0.293893 0.951057 0.293893 0.951057 0.293893 0.587785 0.181636 0.587785 0.181636 1.22465e-16 3.78437e-17 0 0 0.181636 -0.475528 0.181636 -0.475528 0.293893 -0.769421 0.293893 -0.769421 0.293893 -0.769421 0.293893 -0.769421 0.181636 -0.475528 0.181636 -0.475528 3.78437e-17 -9.9076e-17 0 0 -0.475528 -0.475528 -0.475528 -0.475528 -0.769421 -0.769421 -0.769421 -0.769421 -0.769421 -0.769421 -0.769421 -0.769421 -0.475528 -0.475528 -0.475528 -0.475528 -9.9076e-17 -9.9076e-17 0 0 -0.475528 0.181636 -0.475528 0.181636 -0.769421 0.293893 -0.769421 0.293893 -0.769421 0.293893 -0.769421 0.293893 -0.475528 0.181636 -0.475528 0.181636 -9.9076e-17 3.78437e-17 0 0 0.181636 0.587785 0.181636 0.587785 0.293893 0.951057 0.293893 0.951057 0.293893 0.951057 0.293893 0.951057 0.181636 0.587785 0.181636 0.587785 3.78437e-17 1.22465e-16 
