# vtk DataFile Version 3.0
#This file was generated by the deal.II library on 2026/6/8 at 18:00:38
ASCII
DATASET UNSTRUCTURED_GRID

POINTS 1600 double
0 0 0
0.05 0 0
0 0.05 0
0.05 0.05 0
0.05 0 0
0.1 0 0
0.05 0.05 0
0.1 0.05 0
0 0.05 0
0.05 0.05 0
0 0.1 0
0.05 0.1 0
0.05 0.05 0
0.1 0.05 0
0.05 0.1 0
0.1 0.1 0
0.1 0 0
0.15 0 0
0.1 0.05 0
0.15 0.05 0
0.15 0 0
0.2 0 0
0.15 0.05 0
0.2 0.05 0
0.1 0.05 0
0.15 0.05 0
0.1 0.1 0
0.15 0.1 0
0.15 0.05 0
0.2 0.05 0
0.15 0.1 0
0.2 0.1 0
0 0.1 0
0.05 0.1 0
0 0.15 0
0.05 0.15 0
0.05 0.1 0
0.1 0.1 0
0.05 0.15 0
0.1 0.15 0
0 0.15 0
0.05 0.15 0
0 0.2 0
0.05 0.2 0
0.05 0.15 0
0.1 0.15 0
0.05 0.2 0
0.1 0.2 0
0.1 0.1 0
0.15 0.1 0
0.1 0.15 0
0.15 0.15 0
0.15 0.1 0
0.2 0.1 0
0.15 0.15 0
0.2 0.15 0
0.1 0.15 0
0.15 0.15 0
0.1 0.2 0
0.15 0.2 0
0.15 0.15 0
0.2 0.15 0
0.15 0.2 0
0.2 0.2 0
0 0.2 0
0.05 0.2 0
0 0.25 0
0.05 0.25 0
0.05 0.2 0
0.1 0.2 0
0.05 0.25 0
0.1 0.25 0
0 0.25 0
0.05 0.25 0
0 0.3 0
0.05 0.3 0
0.05 0.25 0
0.1 0.25 0
0.05 0.3 0
0.1 0.3 0
0.1 0.2 0
0.15 0.2 0
0.1 0.25 0
0.15 0.25 0
0.15 0.2 0
0.2 0.2 0
0.15 0.25 0
0.2 0.25 0
0.1 0.25 0
0.15 0.25 0
0.1 0.3 0
0.15 0.3 0
0.15 0.25 0
0.2 0.25 0
0.15 0.3 0
0.2 0.3 0
0 0.3 0
0.05 0.3 0
0 0.35 0
0.05 0.35 0
0.05 0.3 0
0.1 0.3 0
0.05 0.35 0
0.1 0.35 0
0 0.35 0
0.05 0.35 0
0 0.4 0
0.05 0.4 0
0.05 0.35 0
0.1 0.35 0
0.05 0.4 0
0.1 0.4 0
0.1 0.3 0
0.15 0.3 0
0.1 0.35 0
0.15 0.35 0
0.15 0.3 0
0.2 0.3 0
0.15 0.35 0
0.2 0.35 0
0.1 0.35 0
0.15 0.35 0
0.1 0.4 0
0.15 0.4 0
0.15 0.35 0
0.2 0.35 0
0.15 0.4 0
0.2 0.4 0
0 0.4 0
0.05 0.4 0
0 0.45 0
0.05 0.45 0
0.05 0.4 0
0.1 0.4 0
0.05 0.45 0
0.1 0.45 0
0 0.45 0
0.05 0.45 0
0 0.5 0
0.05 0.5 0
0.05 0.45 0
0.1 0.45 0
0.05 0.5 0
0.1 0.5 0
0.1 0.4 0
0.15 0.4 0
0.1 0.45 0
0.15 0.45 0
0.15 0.4 0
0.2 0.4 0
0.15 0.45 0
0.2 0.45 0
0.1 0.45 0
0.15 0.45 0
0.1 0.5 0
0.15 0.5 0
0.15 0.45 0
0.2 0.45 0
0.15 0.5 0
0.2 0.5 0
0 0.5 0
0.05 0.5 0
0 0.55 0
0.05 0.55 0
0.05 0.5 0
0.1 0.5 0
0.05 0.55 0
0.1 0.55 0
0 0.55 0
0.05 0.55 0
0 0.6 0
0.05 0.6 0
0.05 0.55 0
0.1 0.55 0
0.05 0.6 0
0.1 0.6 0
0.1 0.5 0
0.15 0.5 0
0.1 0.55 0
0.15 0.55 0
0.15 0.5 0
0.2 0.5 0
0.15 0.55 0
0.2 0.55 0
0.1 0.55 0
0.15 0.55 0
0.1 0.6 0
0.15 0.6 0
0.15 0.55 0
0.2 0.55 0
0.15 0.6 0
0.2 0.6 0
0 0.6 0
0.05 0.6 0
0 0.65 0
0.05 0.65 0
0.05 0.6 0
0.1 0.6 0
0.05 0.65 0
0.1 0.65 0
0 0.65 0
0.05 0.65 0
0 0.7 0
0.05 0.7 0
0.05 0.65 0
0.1 0.65 0
0.05 0.7 0
0.1 0.7 0
0.1 0.6 0
0.15 0.6 0
0.1 0.65 0
0.15 0.65 0
0.15 0.6 0
0.2 0.6 0
0.15 0.65 0
0.2 0.65 0
0.1 0.65 0
0.15 0.65 0
0.1 0.7 0
0.15 0.7 0
0.15 0.65 0
0.2 0.65 0
0.15 0.7 0
0.2 0.7 0
0 0.7 0
0.05 0.7 0
0 0.75 0
0.05 0.75 0
0.05 0.7 0
0.1 0.7 0
0.05 0.75 0
0.1 0.75 0
0 0.75 0
0.05 0.75 0
0 0.8 0
0.05 0.8 0
0.05 0.75 0
0.1 0.75 0
0.05 0.8 0
0.1 0.8 0
0.1 0.7 0
0.15 0.7 0
0.1 0.75 0
0.15 0.75 0
0.15 0.7 0
0.2 0.7 0
0.15 0.75 0
0.2 0.75 0
0.1 0.75 0
0.15 0.75 0
0.1 0.8 0
0.15 0.8 0
0.15 0.75 0
0.2 0.75 0
0.15 0.8 0
0.2 0.8 0
0 0.8 0
0.05 0.8 0
0 0.85 0
0.05 0.85 0
0.05 0.8 0
0.1 0.8 0
0.05 0.85 0
0.1 0.85 0
0 0.85 0
0.05 0.85 0
0 0.9 0
0.05 0.9 0
0.05 0.85 0
0.1 0.85 0
0.05 0.9 0
0.1 0.9 0
0.1 0.8 0
0.15 0.8 0
0.1 0.85 0
0.15 0.85 0
0.15 0.8 0
0.2 0.8 0
0.15 0.85 0
0.2 0.85 0
0.1 0.85 0
0.15 0.85 0
0.1 0.9 0
0.15 0.9 0
0.15 0.85 0
0.2 0.85 0
0.15 0.9 0
0.2 0.9 0
0 0.9 0
0.05 0.9 0
0 0.95 0
0.05 0.95 0
0.05 0.9 0
0.1 0.9 0
0.05 0.95 0
0.1 0.95 0
0 0.95 0
0.05 0.95 0
0 1 0
0.05 1 0
0.05 0.95 0
0.1 0.95 0
0.05 1 0
0.1 1 0
0.1 0.9 0
0.15 0.9 0
0.1 0.95 0
0.15 0.95 0
0.15 0.9 0
0.2 0.9 0
0.15 0.95 0
0.2 0.95 0
0.1 0.95 0
0.15 0.95 0
0.1 1 0
0.15 1 0
0.15 0.95 0
0.2 0.95 0
0.15 1 0
0.2 1 0
0.2 0 0
0.25 0 0
0.2 0.05 0
0.25 0.05 0
0.25 0 0
0.3 0 0
0.25 0.05 0
0.3 0.05 0
0.2 0.05 0
0.25 0.05 0
0.2 0.1 0
0.25 0.1 0
0.25 0.05 0
0.3 0.05 0
0.25 0.1 0
0.3 0.1 0
0.3 0 0
0.35 0 0
0.3 0.05 0
0.35 0.05 0
0.35 0 0
0.4 0 0
0.35 0.05 0
0.4 0.05 0
0.3 0.05 0
0.35 0.05 0
0.3 0.1 0
0.35 0.1 0
0.35 0.05 0
0.4 0.05 0
0.35 0.1 0
0.4 0.1 0
0.2 0.1 0
0.25 0.1 0
0.2 0.15 0
0.25 0.15 0
0.25 0.1 0
0.3 0.1 0
0.25 0.15 0
0.3 0.15 0
0.2 0.15 0
0.25 0.15 0
0.2 0.2 0
0.25 0.2 0
0.25 0.15 0
0.3 0.15 0
0.25 0.2 0
0.3 0.2 0
0.3 0.1 0
0.35 0.1 0
0.3 0.15 0
0.35 0.15 0
0.35 0.1 0
0.4 0.1 0
0.35 0.15 0
0.4 0.15 0
0.3 0.15 0
0.35 0.15 0
0.3 0.2 0
0.35 0.2 0
0.35 0.15 0
0.4 0.15 0
0.35 0.2 0
0.4 0.2 0
0.2 0.2 0
0.25 0.2 0
0.2 0.25 0
0.25 0.25 0
0.25 0.2 0
0.3 0.2 0
0.25 0.25 0
0.3 0.25 0
0.2 0.25 0
0.25 0.25 0
0.2 0.3 0
0.25 0.3 0
0.25 0.25 0
0.3 0.25 0
0.25 0.3 0
0.3 0.3 0
0.3 0.2 0
0.35 0.2 0
0.3 0.25 0
0.35 0.25 0
0.35 0.2 0
0.4 0.2 0
0.35 0.25 0
0.4 0.25 0
0.3 0.25 0
0.35 0.25 0
0.3 0.3 0
0.35 0.3 0
0.35 0.25 0
0.4 0.25 0
0.35 0.3 0
0.4 0.3 0
0.2 0.3 0
0.25 0.3 0
0.2 0.35 0
0.25 0.35 0
0.25 0.3 0
0.3 0.3 0
0.25 0.35 0
0.3 0.35 0
0.2 0.35 0
0.25 0.35 0
0.2 0.4 0
0.25 0.4 0
0.25 0.35 0
0.3 0.35 0
0.25 0.4 0
0.3 0.4 0
0.3 0.3 0
0.35 0.3 0
0.3 0.35 0
0.35 0.35 0
0.35 0.3 0
0.4 0.3 0
0.35 0.35 0
0.4 0.35 0
0.3 0.35 0
0.35 0.35 0
0.3 0.4 0
0.35 0.4 0
0.35 0.35 0
0.4 0.35 0
0.35 0.4 0
0.4 0.4 0
0.2 0.4 0
0.25 0.4 0
0.2 0.45 0
0.25 0.45 0
0.25 0.4 0
0.3 0.4 0
0.25 0.45 0
0.3 0.45 0
0.2 0.45 0
0.25 0.45 0
0.2 0.5 0
0.25 0.5 0
0.25 0.45 0
0.3 0.45 0
0.25 0.5 0
0.3 0.5 0
0.3 0.4 0
0.35 0.4 0
0.3 0.45 0
0.35 0.45 0
0.35 0.4 0
0.4 0.4 0
0.35 0.45 0
0.4 0.45 0
0.3 0.45 0
0.35 0.45 0
0.3 0.5 0
0.35 0.5 0
0.35 0.45 0
0.4 0.45 0
0.35 0.5 0
0.4 0.5 0
0.2 0.5 0
0.25 0.5 0
0.2 0.55 0
0.25 0.55 0
0.25 0.5 0
0.3 0.5 0
0.25 0.55 0
0.3 0.55 0
0.2 0.55 0
0.25 0.55 0
0.2 0.6 0
0.25 0.6 0
0.25 0.55 0
0.3 0.55 0
0.25 0.6 0
0.3 0.6 0
0.3 0.5 0
0.35 0.5 0
0.3 0.55 0
0.35 0.55 0
0.35 0.5 0
0.4 0.5 0
0.35 0.55 0
0.4 0.55 0
0.3 0.55 0
0.35 0.55 0
0.3 0.6 0
0.35 0.6 0
0.35 0.55 0
0.4 0.55 0
0.35 0.6 0
0.4 0.6 0
0.2 0.6 0
0.25 0.6 0
0.2 0.65 0
0.25 0.65 0
0.25 0.6 0
0.3 0.6 0
0.25 0.65 0
0.3 0.65 0
0.2 0.65 0
0.25 0.65 0
0.2 0.7 0
0.25 0.7 0
0.25 0.65 0
0.3 0.65 0
0.25 0.7 0
0.3 0.7 0
0.3 0.6 0
0.35 0.6 0
0.3 0.65 0
0.35 0.65 0
0.35 0.6 0
0.4 0.6 0
0.35 0.65 0
0.4 0.65 0
0.3 0.65 0
0.35 0.65 0
0.3 0.7 0
0.35 0.7 0
0.35 0.65 0
0.4 0.65 0
0.35 0.7 0
0.4 0.7 0
0.2 0.7 0
0.25 0.7 0
0.2 0.75 0
0.25 0.75 0
0.25 0.7 0
0.3 0.7 0
0.25 0.75 0
0.3 0.75 0
0.2 0.75 0
0.25 0.75 0
0.2 0.8 0
0.25 0.8 0
0.25 0.75 0
0.3 0.75 0
0.25 0.8 0
0.3 0.8 0
0.3 0.7 0
0.35 0.7 0
0.3 0.75 0
0.35 0.75 0
0.35 0.7 0
0.4 0.7 0
0.35 0.75 0
0.4 0.75 0
0.3 0.75 0
0.35 0.75 0
0.3 0.8 0
0.35 0.8 0
0.35 0.75 0
0.4 0.75 0
0.35 0.8 0
0.4 0.8 0
0.2 0.8 0
0.25 0.8 0
0.2 0.85 0
0.25 0.85 0
0.25 0.8 0
0.3 0.8 0
0.25 0.85 0
0.3 0.85 0
0.2 0.85 0
0.25 0.85 0
0.2 0.9 0
0.25 0.9 0
0.25 0.85 0
0.3 0.85 0
0.25 0.9 0
0.3 0.9 0
0.3 0.8 0
0.35 0.8 0
0.3 0.85 0
0.35 0.85 0
0.35 0.8 0
0.4 0.8 0
0.35 0.85 0
0.4 0.85 0
0.3 0.85 0
0.35 0.85 0
0.3 0.9 0
0.35 0.9 0
0.35 0.85 0
0.4 0.85 0
0.35 0.9 0
0.4 0.9 0
0.2 0.9 0
0.25 0.9 0
0.2 0.95 0
0.25 0.95 0
0.25 0.9 0
0.3 0.9 0
0.25 0.95 0
0.3 0.95 0
0.2 0.95 0
0.25 0.95 0
0.2 1 0
0.25 1 0
0.25 0.95 0
0.3 0.95 0
0.25 1 0
0.3 1 0
0.3 0.9 0
0.35 0.9 0
0.3 0.95 0
0.35 0.95 0
0.35 0.9 0
0.4 0.9 0
0.35 0.95 0
0.4 0.95 0
0.3 0.95 0
0.35 0.95 0
0.3 1 0
0.35 1 0
0.35 0.95 0
0.4 0.95 0
0.35 1 0
0.4 1 0
0.4 0 0
0.45 0 0
0.4 0.05 0
0.45 0.05 0
0.45 0 0
0.5 0 0
0.45 0.05 0
0.5 0.05 0
0.4 0.05 0
0.45 0.05 0
0.4 0.1 0
0.45 0.1 0
0.45 0.05 0
0.5 0.05 0
0.45 0.1 0
0.5 0.1 0
0.5 0 0
0.55 0 0
0.5 0.05 0
0.55 0.05 0
0.55 0 0
0.6 0 0
0.55 0.05 0
0.6 0.05 0
0.5 0.05 0
0.55 0.05 0
0.5 0.1 0
0.55 0.1 0
0.55 0.05 0
0.6 0.05 0
0.55 0.1 0
0.6 0.1 0
0.4 0.1 0
0.45 0.1 0
0.4 0.15 0
0.45 0.15 0
0.45 0.1 0
0.5 0.1 0
0.45 0.15 0
0.5 0.15 0
0.4 0.15 0
0.45 0.15 0
0.4 0.2 0
0.45 0.2 0
0.45 0.15 0
0.5 0.15 0
0.45 0.2 0
0.5 0.2 0
0.5 0.1 0
0.55 0.1 0
0.5 0.15 0
0.55 0.15 0
0.55 0.1 0
0.6 0.1 0
0.55 0.15 0
0.6 0.15 0
0.5 0.15 0
0.55 0.15 0
0.5 0.2 0
0.55 0.2 0
0.55 0.15 0
0.6 0.15 0
0.55 0.2 0
0.6 0.2 0
0.4 0.2 0
0.45 0.2 0
0.4 0.25 0
0.45 0.25 0
0.45 0.2 0
0.5 0.2 0
0.45 0.25 0
0.5 0.25 0
0.4 0.25 0
0.45 0.25 0
0.4 0.3 0
0.45 0.3 0
0.45 0.25 0
0.5 0.25 0
0.45 0.3 0
0.5 0.3 0
0.5 0.2 0
0.55 0.2 0
0.5 0.25 0
0.55 0.25 0
0.55 0.2 0
0.6 0.2 0
0.55 0.25 0
0.6 0.25 0
0.5 0.25 0
0.55 0.25 0
0.5 0.3 0
0.55 0.3 0
0.55 0.25 0
0.6 0.25 0
0.55 0.3 0
0.6 0.3 0
0.4 0.3 0
0.45 0.3 0
0.4 0.35 0
0.45 0.35 0
0.45 0.3 0
0.5 0.3 0
0.45 0.35 0
0.5 0.35 0
0.4 0.35 0
0.45 0.35 0
0.4 0.4 0
0.45 0.4 0
0.45 0.35 0
0.5 0.35 0
0.45 0.4 0
0.5 0.4 0
0.5 0.3 0
0.55 0.3 0
0.5 0.35 0
0.55 0.35 0
0.55 0.3 0
0.6 0.3 0
0.55 0.35 0
0.6 0.35 0
0.5 0.35 0
0.55 0.35 0
0.5 0.4 0
0.55 0.4 0
0.55 0.35 0
0.6 0.35 0
0.55 0.4 0
0.6 0.4 0
0.4 0.4 0
0.45 0.4 0
0.4 0.45 0
0.45 0.45 0
0.45 0.4 0
0.5 0.4 0
0.45 0.45 0
0.5 0.45 0
0.4 0.45 0
0.45 0.45 0
0.4 0.5 0
0.45 0.5 0
0.45 0.45 0
0.5 0.45 0
0.45 0.5 0
0.5 0.5 0
0.5 0.4 0
0.55 0.4 0
0.5 0.45 0
0.55 0.45 0
0.55 0.4 0
0.6 0.4 0
0.55 0.45 0
0.6 0.45 0
0.5 0.45 0
0.55 0.45 0
0.5 0.5 0
0.55 0.5 0
0.55 0.45 0
0.6 0.45 0
0.55 0.5 0
0.6 0.5 0
0.4 0.5 0
0.45 0.5 0
0.4 0.55 0
0.45 0.55 0
0.45 0.5 0
0.5 0.5 0
0.45 0.55 0
0.5 0.55 0
0.4 0.55 0
0.45 0.55 0
0.4 0.6 0
0.45 0.6 0
0.45 0.55 0
0.5 0.55 0
0.45 0.6 0
0.5 0.6 0
0.5 0.5 0
0.55 0.5 0
0.5 0.55 0
0.55 0.55 0
0.55 0.5 0
0.6 0.5 0
0.55 0.55 0
0.6 0.55 0
0.5 0.55 0
0.55 0.55 0
0.5 0.6 0
0.55 0.6 0
0.55 0.55 0
0.6 0.55 0
0.55 0.6 0
0.6 0.6 0
0.4 0.6 0
0.45 0.6 0
0.4 0.65 0
0.45 0.65 0
0.45 0.6 0
0.5 0.6 0
0.45 0.65 0
0.5 0.65 0
0.4 0.65 0
0.45 0.65 0
0.4 0.7 0
0.45 0.7 0
0.45 0.65 0
0.5 0.65 0
0.45 0.7 0
0.5 0.7 0
0.5 0.6 0
0.55 0.6 0
0.5 0.65 0
0.55 0.65 0
0.55 0.6 0
0.6 0.6 0
0.55 0.65 0
0.6 0.65 0
0.5 0.65 0
0.55 0.65 0
0.5 0.7 0
0.55 0.7 0
0.55 0.65 0
0.6 0.65 0
0.55 0.7 0
0.6 0.7 0
0.4 0.7 0
0.45 0.7 0
0.4 0.75 0
0.45 0.75 0
0.45 0.7 0
0.5 0.7 0
0.45 0.75 0
0.5 0.75 0
0.4 0.75 0
0.45 0.75 0
0.4 0.8 0
0.45 0.8 0
0.45 0.75 0
0.5 0.75 0
0.45 0.8 0
0.5 0.8 0
0.5 0.7 0
0.55 0.7 0
0.5 0.75 0
0.55 0.75 0
0.55 0.7 0
0.6 0.7 0
0.55 0.75 0
0.6 0.75 0
0.5 0.75 0
0.55 0.75 0
0.5 0.8 0
0.55 0.8 0
0.55 0.75 0
0.6 0.75 0
0.55 0.8 0
0.6 0.8 0
0.4 0.8 0
0.45 0.8 0
0.4 0.85 0
0.45 0.85 0
0.45 0.8 0
0.5 0.8 0
0.45 0.85 0
0.5 0.85 0
0.4 0.85 0
0.45 0.85 0
0.4 0.9 0
0.45 0.9 0
0.45 0.85 0
[...]
POINT_DATA 1600
VECTORS velocity double
0 0 0
0.156434 0 0
0 -0.156434 0
0.154241 -0.154553 0
0.156434 0 0
0.309017 0 0
0.154241 -0.154553 0
0.304747 -0.148853 0
0 -0.156434 0
0.154241 -0.154553 0
0 -0.309017 0
0.148624 -0.305278 0
0.154241 -0.154553 0
0.304747 -0.148853 0
0.148624 -0.305278 0
0.293702 -0.294066 0
0.309017 0 0
0.45399 0 0
0.304747 -0.148853 0
0.447866 -0.139468 0
0.45399 0 0
0.587785 0 0
0.447866 -0.139468 0
0.580021 -0.126617 0
0.304747 -0.148853 0
0.447866 -0.139468 0
0.293702 -0.294066 0
0.431583 -0.275504 0
0.447866 -0.139468 0
0.580021 -0.126617 0
0.431583 -0.275504 0
0.558812 -0.250095 0
0 -0.309017 0
0.148624 -0.305278 0
0 -0.45399 0
0.139325 -0.448573 0
0.148624 -0.305278 0
0.293702 -0.294066 0
0.139325 -0.448573 0
0.275282 -0.432042 0
0 -0.45399 0
0.139325 -0.448573 0
0 -0.587785 0
0.12655 -0.580831 0
0.139325 -0.448573 0
0.275282 -0.432042 0
0.12655 -0.580831 0
0.249995 -0.559315 0
0.293702 -0.294066 0
0.431583 -0.275504 0
0.275282 -0.432042 0
0.404417 -0.404697 0
0.431583 -0.275504 0
0.558812 -0.250095 0
0.404417 -0.404697 0
0.523576 -0.367357 0
0.275282 -0.432042 0
0.404417 -0.404697 0
0.249995 -0.559315 0
0.367238 -0.523881 0
0.404417 -0.404697 0
0.523576 -0.367357 0
0.367238 -0.523881 0
0.475446 -0.475561 0
0 -0.587785 0
0.12655 -0.580831 0
0 -0.707107 0
0.110644 -0.698737 0
0.12655 -0.580831 0
0.249995 -0.559315 0
0.110644 -0.698737 0
0.218538 -0.672767 0
0 -0.707107 0
0.110644 -0.698737 0
0 -0.809017 0
0.0920064 -0.799372 0
0.110644 -0.698737 0
0.218538 -0.672767 0
0.0920064 -0.799372 0
0.181701 -0.76963 0
0.249995 -0.559315 0
0.367238 -0.523881 0
0.218538 -0.672767 0
0.321025 -0.630157 0
0.367238 -0.523881 0
0.475446 -0.475561 0
0.321025 -0.630157 0
0.41562 -0.572056 0
0.218538 -0.672767 0
0.321025 -0.630157 0
0.181701 -0.76963 0
0.266916 -0.720911 0
0.321025 -0.630157 0
0.41562 -0.572056 0
0.266916 -0.720911 0
0.345567 -0.654462 0
0 -0.809017 0
0.0920064 -0.799372 0
0 -0.891007 0
0.0711018 -0.880268 0
0.0920064 -0.799372 0
0.181701 -0.76963 0
0.0711018 -0.880268 0
0.140397 -0.84753 0
0 -0.891007 0
0.0711018 -0.880268 0
0 -0.951057 0
0.0484447 -0.939452 0
0.0711018 -0.880268 0
0.140397 -0.84753 0
0.0484447 -0.939452 0
0.0956414 -0.904551 0
0.181701 -0.76963 0
0.266916 -0.720911 0
0.140397 -0.84753 0
0.206241 -0.793903 0
0.266916 -0.720911 0
0.345567 -0.654462 0
0.206241 -0.793903 0
0.267012 -0.720752 0
0.140397 -0.84753 0
0.206241 -0.793903 0
0.0956414 -0.904551 0
0.140491 -0.847337 0
0.206241 -0.793903 0
0.267012 -0.720752 0
0.140491 -0.847337 0
0.181883 -0.769292 0
0 -0.951057 0
0.0484447 -0.939452 0
0 -0.987688 0
0.024593 -0.975485 0
0.0484447 -0.939452 0
0.0956414 -0.904551 0
0.024593 -0.975485 0
0.0485321 -0.939293 0
0 -0.987688 0
0.024593 -0.975485 0
0 -1 0
0.000133934 -0.987496 0
0.024593 -0.975485 0
0.0485321 -0.939293 0
0.000133934 -0.987496 0
0.000226686 -0.950902 0
0.0956414 -0.904551 0
0.140491 -0.847337 0
0.0485321 -0.939293 0
0.0712816 -0.8799 0
0.140491 -0.847337 0
0.181883 -0.769292 0
0.0712816 -0.8799 0
0.0922747 -0.798882 0
0.0485321 -0.939293 0
0.0712816 -0.8799 0
0.000226686 -0.950902 0
0.000314624 -0.890793 0
0.0712816 -0.8799 0
0.0922747 -0.798882 0
0.000314624 -0.890793 0
0.000389848 -0.808795 0
0 -1 0
0.000133934 -0.987496 0
0 -0.987688 0
-0.0243305 -0.975199 0
0.000133934 -0.987496 0
0.000226686 -0.950902 0
-0.0243305 -0.975199 0
-0.0480881 -0.9391 0
0 -0.987688 0
-0.0243305 -0.975199 0
0 -0.951057 0
-0.0481986 -0.938906 0
-0.0243305 -0.975199 0
-0.0480881 -0.9391 0
-0.0481986 -0.938906 0
-0.0952251 -0.904181 0
0.000226686 -0.950902 0
0.000314624 -0.890793 0
-0.0480881 -0.9391 0
-0.0706648 -0.879753 0
0.000314624 -0.890793 0
0.000389848 -0.808795 0
-0.0706648 -0.879753 0
-0.0915101 -0.798786 0
-0.0480881 -0.9391 0
-0.0706648 -0.879753 0
-0.0952251 -0.904181 0
-0.139911 -0.847056 0
-0.0706648 -0.879753 0
-0.0915101 -0.798786 0
-0.139911 -0.847056 0
-0.181164 -0.769107 0
0 -0.951057 0
-0.0481986 -0.938906 0
0 -0.891007 0
-0.0708839 -0.87951 0
-0.0481986 -0.938906 0
-0.0952251 -0.904181 0
-0.0708839 -0.87951 0
-0.140027 -0.847013 0
0 -0.891007 0
-0.0708839 -0.87951 0
0 -0.809017 0
-0.0918293 -0.798474 0
-0.0708839 -0.87951 0
-0.140027 -0.847013 0
-0.0918293 -0.798474 0
-0.181393 -0.769008 0
-0.0952251 -0.904181 0
-0.139911 -0.847056 0
-0.140027 -0.847013 0
-0.205724 -0.793513 0
-0.139911 -0.847056 0
-0.181164 -0.769107 0
-0.205724 -0.793513 0
-0.266368 -0.720496 0
-0.140027 -0.847013 0
-0.205724 -0.793513 0
-0.181393 -0.769008 0
-0.266487 -0.720447 0
-0.205724 -0.793513 0
-0.266368 -0.720496 0
-0.266487 -0.720447 0
-0.34503 -0.654155 0
0 -0.809017 0
-0.0918293 -0.798474 0
0 -0.707107 0
-0.11052 -0.69779 0
-0.0918293 -0.798474 0
-0.181393 -0.769008 0
-0.11052 -0.69779 0
-0.218309 -0.672087 0
0 -0.707107 0
-0.11052 -0.69779 0
0 -0.587785 0
-0.126493 -0.579939 0
-0.11052 -0.69779 0
-0.218309 -0.672087 0
-0.126493 -0.579939 0
-0.249863 -0.558634 0
-0.181393 -0.769008 0
-0.266487 -0.720447 0
-0.218309 -0.672087 0
-0.32071 -0.629659 0
-0.266487 -0.720447 0
-0.34503 -0.654155 0
-0.32071 -0.629659 0
-0.41522 -0.571725 0
-0.218309 -0.672087 0
-0.32071 -0.629659 0
-0.249863 -0.558634 0
-0.36706 -0.523386 0
-0.32071 -0.629659 0
-0.41522 -0.571725 0
-0.36706 -0.523386 0
-0.475217 -0.475235 0
0 -0.587785 0
-0.126493 -0.579939 0
0 -0.45399 0
-0.139348 -0.447832 0
-0.126493 -0.579939 0
-0.249863 -0.558634 0
-0.139348 -0.447832 0
-0.275267 -0.431432 0
0 -0.45399 0
-0.139348 -0.447832 0
0 -0.309017 0
-0.148761 -0.304753 0
-0.139348 -0.447832 0
-0.275267 -0.431432 0
-0.148761 -0.304753 0
-0.293868 -0.293608 0
-0.249863 -0.558634 0
-0.36706 -0.523386 0
-0.275267 -0.431432 0
-0.404391 -0.404241 0
-0.36706 -0.523386 0
-0.475217 -0.475235 0
-0.404391 -0.404241 0
-0.523542 -0.367056 0
-0.275267 -0.431432 0
-0.404391 -0.404241 0
-0.293868 -0.293608 0
-0.431756 -0.275142 0
-0.404391 -0.404241 0
-0.523542 -0.367056 0
-0.431756 -0.275142 0
-0.558986 -0.249847 0
0 -0.309017 0
-0.148761 -0.304753 0
0 -0.156434 0
-0.154511 -0.154254 0
-0.148761 -0.304753 0
-0.293868 -0.293608 0
-0.154511 -0.154254 0
-0.305188 -0.148592 0
0 -0.156434 0
-0.154511 -0.154254 0
0 -1.22465e-16 0
-0.156434 -1.20957e-16 0
-0.154511 -0.154254 0
-0.305188 -0.148592 0
-0.156434 -1.20957e-16 0
-0.309017 -1.16471e-16 0
-0.293868 -0.293608 0
-0.431756 -0.275142 0
-0.305188 -0.148592 0
-0.448411 -0.139259 0
-0.431756 -0.275142 0
-0.558986 -0.249847 0
-0.448411 -0.139259 0
-0.580605 -0.12647 0
-0.305188 -0.148592 0
-0.448411 -0.139259 0
-0.309017 -1.16471e-16 0
-0.45399 -1.09117e-16 0
-0.448411 -0.139259 0
-0.580605 -0.12647 0
-0.45399 -1.09117e-16 0
-0.587785 -9.9076e-17 0
0.587785 0 0
0.707107 0 0
0.580021 -0.126617 0
0.69791 -0.110637 0
0.707107 0 0
0.809017 0 0
0.69791 -0.110637 0
0.798614 -0.0919353 0
0.580021 -0.126617 0
0.69791 -0.110637 0
0.558812 -0.250095 0
0.672274 -0.218523 0
0.69791 -0.110637 0
0.798614 -0.0919353 0
0.672274 -0.218523 0
0.769195 -0.181587 0
0.809017 0 0
0.891007 0 0
0.798614 -0.0919353 0
0.879656 -0.0709781 0
0.891007 0 0
0.951057 0 0
0.879656 -0.0709781 0
0.939045 -0.0482811 0
0.798614 -0.0919353 0
0.879656 -0.0709781 0
0.769195 -0.181587 0
0.847198 -0.1402 0
0.879656 -0.0709781 0
0.939045 -0.0482811 0
0.847198 -0.1402 0
0.904361 -0.0953767 0
0.558812 -0.250095 0
0.672274 -0.218523 0
0.523576 -0.367357 0
0.629864 -0.320992 0
0.672274 -0.218523 0
0.769195 -0.181587 0
0.629864 -0.320992 0
0.720669 -0.26675 0
0.523576 -0.367357 0
0.629864 -0.320992 0
0.475446 -0.475561 0
0.571967 -0.415559 0
0.629864 -0.320992 0
0.720669 -0.26675 0
0.571967 -0.415559 0
0.654424 -0.345352 0
0.769195 -0.181587 0
0.847198 -0.1402 0
0.720669 -0.26675 0
0.793751 -0.205964 0
0.847198 -0.1402 0
0.904361 -0.0953767 0
0.793751 -0.205964 0
0.847304 -0.140126 0
0.720669 -0.26675 0
0.793751 -0.205964 0
0.654424 -0.345352 0
0.720784 -0.266667 0
0.793751 -0.205964 0
0.847304 -0.140126 0
0.720784 -0.266667 0
0.76941 -0.181436 0
0.475446 -0.475561 0
0.571967 -0.415559 0
0.41562 -0.572056 0
0.499995 -0.499897 0
0.571967 -0.415559 0
0.654424 -0.345352 0
0.499995 -0.499897 0
0.572077 -0.415461 0
0.41562 -0.572056 0
0.499995 -0.499897 0
0.345567 -0.654462 0
0.415723 -0.571934 0
0.499995 -0.499897 0
0.572077 -0.415461 0
0.415723 -0.571934 0
0.475657 -0.475352 0
0.654424 -0.345352 0
0.720784 -0.266667 0
0.572077 -0.415461 0
0.630088 -0.320818 0
0.720784 -0.266667 0
0.76941 -0.181436 0
0.630088 -0.320818 0
0.672592 -0.218293 0
0.572077 -0.415461 0
0.630088 -0.320818 0
0.475657 -0.475352 0
0.523888 -0.367084 0
0.630088 -0.320818 0
0.672592 -0.218293 0
0.523888 -0.367084 0
0.559221 -0.249789 0
0.345567 -0.654462 0
0.415723 -0.571934 0
0.267012 -0.720752 0
0.321219 -0.629892 0
0.415723 -0.571934 0
0.475657 -0.475352 0
0.321219 -0.629892 0
0.367525 -0.523545 0
0.267012 -0.720752 0
0.321219 -0.629892 0
0.181883 -0.769292 0
0.218803 -0.672338 0
0.321219 -0.629892 0
0.367525 -0.523545 0
0.218803 -0.672338 0
0.250339 -0.558847 0
0.475657 -0.475352 0
0.523888 -0.367084 0
0.367525 -0.523545 0
0.404785 -0.40432 0
0.523888 -0.367084 0
0.559221 -0.249789 0
0.404785 -0.40432 0
0.432078 -0.275146 0
0.367525 -0.523545 0
0.404785 -0.40432 0
0.250339 -0.558847 0
0.275709 -0.431604 0
0.404785 -0.40432 0
0.432078 -0.275146 0
0.275709 -0.431604 0
0.294287 -0.293734 0
0.181883 -0.769292 0
0.218803 -0.672338 0
0.0922747 -0.798882 0
0.110996 -0.698223 0
0.218803 -0.672338 0
0.250339 -0.558847 0
0.110996 -0.698223 0
0.126981 -0.580384 0
0.0922747 -0.798882 0
0.110996 -0.698223 0
0.000389848 -0.808795 0
0.000448839 -0.706906 0
0.110996 -0.698223 0
0.126981 -0.580384 0
0.000448839 -0.706906 0
0.000488725 -0.587621 0
0.250339 -0.558847 0
0.275709 -0.431604 0
0.126981 -0.580384 0
0.139834 -0.448258 0
0.275709 -0.431604 0
0.294287 -0.293734 0
0.139834 -0.448258 0
0.149237 -0.305089 0
0.126981 -0.580384 0
0.139834 -0.448258 0
0.000488725 -0.587621 0
0.000507668 -0.453867 0
0.139834 -0.448258 0
0.149237 -0.305089 0
0.000507668 -0.453867 0
0.000505266 -0.308926 0
0.000389848 -0.808795 0
0.000448839 -0.706906 0
-0.0915101 -0.798786 0
-0.110115 -0.698174 0
0.000448839 -0.706906 0
0.000488725 -0.587621 0
-0.110115 -0.698174 0
-0.126021 -0.580377 0
-0.0915101 -0.798786 0
-0.110115 -0.698174 0
-0.181164 -0.769107 0
-0.217973 -0.672244 0
-0.110115 -0.698174 0
-0.126021 -0.580377 0
-0.217973 -0.672244 0
-0.249432 -0.558834 0
0.000488725 -0.587621 0
0.000507668 -0.453867 0
-0.126021 -0.580377 0
-0.138836 -0.448288 0
0.000507668 -0.453867 0
0.000505266 -0.308926 0
-0.138836 -0.448288 0
-0.148242 -0.305147 0
-0.126021 -0.580377 0
-0.138836 -0.448288 0
-0.249432 -0.558834 0
-0.274762 -0.431659 0
-0.138836 -0.448288 0
-0.148242 -0.305147 0
-0.274762 -0.431659 0
-0.293337 -0.293844 0
-0.181164 -0.769107 0
-0.217973 -0.672244 0
-0.266368 -0.720496 0
-0.320473 -0.62976 0
-0.217973 -0.672244 0
-0.249432 -0.558834 0
-0.320473 -0.62976 0
-0.366706 -0.523524 0
-0.266368 -0.720496 0
-0.320473 -0.62976 0
-0.34503 -0.654155 0
-0.415096 -0.571775 0
-0.320473 -0.62976 0
-0.366706 -0.523524 0
-0.415096 -0.571775 0
-0.474961 -0.475325 0
-0.249432 -0.558834 0
-0.274762 -0.431659 0
-0.366706 -0.523524 0
-0.403923 -0.404394 0
-0.274762 -0.431659 0
-0.293337 -0.293844 0
-0.403923 -0.404394 0
-0.431203 -0.275296 0
-0.366706 -0.523524 0
-0.403923 -0.404394 0
-0.474961 -0.475325 0
-0.523143 -0.367168 0
-0.403923 -0.404394 0
-0.431203 -0.275296 0
-0.523143 -0.367168 0
-0.55845 -0.249962 0
-0.34503 -0.654155 0
-0.415096 -0.571775 0
-0.41522 -0.571725 0
-0.49952 -0.499723 0
-0.415096 -0.571775 0
-0.474961 -0.475325 0
-0.49952 -0.499723 0
-0.571538 -0.415427 0
-0.41522 -0.571725 0
-0.49952 -0.499723 0
-0.475217 -0.475235 0
-0.571678 -0.415384 0
-0.49952 -0.499723 0
-0.571538 -0.415427 0
-0.571678 -0.415384 0
-0.654072 -0.345313 0
-0.474961 -0.475325 0
-0.523143 -0.367168 0
-0.571538 -0.415427 0
-0.629495 -0.320903 0
-0.523143 -0.367168 0
-0.55845 -0.249962 0
-0.629495 -0.320903 0
-0.671955 -0.218472 0
-0.571538 -0.415427 0
-0.629495 -0.320903 0
-0.654072 -0.345313 0
-0.72037 -0.266743 0
-0.629495 -0.320903 0
-0.671955 -0.218472 0
-0.72037 -0.266743 0
-0.768934 -0.181603 0
-0.475217 -0.475235 0
-0.571678 -0.415384 0
-0.523542 -0.367056 0
-0.629799 -0.320832 0
-0.571678 -0.415384 0
-0.654072 -0.345313 0
-0.629799 -0.320832 0
-0.720547 -0.266711 0
-0.523542 -0.367056 0
-0.629799 -0.320832 0
-0.558986 -0.249847 0
-0.672432 -0.218388 0
-0.629799 -0.320832 0
-0.720547 -0.266711 0
-0.672432 -0.218388 0
-0.769308 -0.181549 0
-0.654072 -0.345313 0
-0.72037 -0.266743 0
-0.720547 -0.266711 0
-0.793552 -0.206026 0
-0.72037 -0.266743 0
-0.768934 -0.181603 0
-0.793552 -0.206026 0
-0.847014 -0.140269 0
-0.720547 -0.266711 0
-0.793552 -0.206026 0
-0.769308 -0.181549 0
-0.847234 -0.140242 0
-0.793552 -0.206026 0
-0.847014 -0.140269 0
-0.847234 -0.140242 0
-0.904293 -0.0954837 0
-0.558986 -0.249847 0
-0.672432 -0.218388 0
-0.580605 -0.12647 0
-0.698476 -0.110557 0
-0.672432 -0.218388 0
-0.769308 -0.181549 0
-0.698476 -0.110557 0
-0.799109 -0.0919172 0
-0.580605 -0.12647 0
-0.698476 -0.110557 0
-0.587785 -9.9076e-17 0
-0.707107 -8.65956e-17 0
-0.698476 -0.110557 0
-0.799109 -0.0919172 0
-0.707107 -8.65956e-17 0
-0.809017 -7.19829e-17 0
-0.769308 -0.181549 0
-0.847234 -0.140242 0
-0.799109 -0.0919172 0
-0.880029 -0.0710113 0
-0.847234 -0.140242 0
-0.904293 -0.0954837 0
-0.880029 -0.0710113 0
-0.939254 -0.0483542 0
-0.799109 -0.0919172 0
-0.880029 -0.0710113 0
-0.809017 -7.19829e-17 0
-0.891007 -5.55978e-17 0
-0.880029 -0.0710113 0
-0.939254 -0.0483542 0
-0.891007 -5.55978e-17 0
-0.951057 -3.78437e-17 0
0.951057 0 0
0.987688 0 0
0.939045 -0.0482811 0
0.975323 -0.0244017 0
0.987688 0 0
1 0 0
0.975323 -0.0244017 0
0.987594 7.33786e-05 0
0.939045 -0.0482811 0
0.975323 -0.0244017 0
0.904361 -0.0953767 0
0.939273 -0.0482183 0
0.975323 -0.0244017 0
0.987594 7.33786e-05 0
0.939273 -0.0482183 0
0.951068 0.000117787 0
1 0 0
0.987688 0 0
0.987594 7.33786e-05 0
0.975551 0.0245428 0
0.987688 0 0
0.951057 0 0
0.975551 0.0245428 0
0.939482 0.0484045 0
0.987594 7.33786e-05 0
0.975551 0.0245428 0
0.951068 0.000117787 0
0.939447 0.0484444 0
0.975551 0.0245428 0
0.939482 0.0484045 0
0.939447 0.0484444 0
0.904692 0.0955743 0
0.904361 -0.0953767 0
0.939273 -0.0482183 0
0.847304 -0.140126 0
0.880006 -0.0708523 0
0.939273 -0.0482183 0
0.951068 0.000117787 0
0.880006 -0.0708523 0
0.891044 0.000154628 0
0.847304 -0.140126 0
0.880006 -0.0708523 0
0.76941 -0.181436 0
0.799097 -0.0917517 0
0.880006 -0.0708523 0
0.891044 0.000154628 0
0.799097 -0.0917517 0
0.809109 0.000179577 0
0.951068 0.000117787 0
0.939447 0.0484444 0
0.891044 0.000154628 0
0.880143 0.0711491 0
0.939447 0.0484444 0
0.904692 0.0955743 0
0.880143 0.0711491 0
0.847565 0.140386 0
0.891044 0.000154628 0
0.880143 0.0711491 0
0.809109 0.000179577 0
0.799194 0.0920964 0
0.880143 0.0711491 0
0.847565 0.140386 0
0.799194 0.0920964 0
0.769593 0.181737 0
0.76941 -0.181436 0
0.799097 -0.0917517 0
0.672592 -0.218293 0
0.698536 -0.110405 0
0.799097 -0.0917517 0
0.809109 0.000179577 0
0.698536 -0.110405 0
0.707276 0.000190017 0
0.672592 -0.218293 0
0.698536 -0.110405 0
0.559221 -0.249789 0
0.580782 -0.126353 0
0.698536 -0.110405 0
0.707276 0.000190017 0
0.580782 -0.126353 0
0.588034 0.000185235 0
0.809109 0.000179577 0
0.799194 0.0920964 0
0.707276 0.000190017 0
0.698591 0.11077 0
0.799194 0.0920964 0
0.769593 0.181737 0
0.698591 0.11077 0
0.672696 0.218612 0
0.707276 0.000190017 0
0.698591 0.11077 0
0.588034 0.000185235 0
0.580797 0.126709 0
0.698591 0.11077 0
0.672696 0.218612 0
0.580797 0.126709 0
0.559249 0.250101 0
0.559221 -0.249789 0
0.580782 -0.126353 0
0.432078 -0.275146 0
0.448725 -0.139201 0
0.580782 -0.126353 0
0.588034 0.000185235 0
0.448725 -0.139201 0
0.454314 0.000165736 0
0.432078 -0.275146 0
0.448725 -0.139201 0
0.294287 -0.293734 0
0.30561 -0.14863 0
0.448725 -0.139201 0
0.454314 0.000165736 0
0.30561 -0.14863 0
0.309398 0.00013371 0
0.588034 0.000185235 0
0.580797 0.126709 0
0.454314 0.000165736 0
0.448704 0.13952 0
0.580797 0.126709 0
0.559249 0.250101 0
0.448704 0.13952 0
0.432038 0.275426 0
0.454314 0.000165736 0
0.448704 0.13952 0
0.309398 0.00013371 0
0.305558 0.148887 0
0.448704 0.13952 0
0.432038 0.275426 0
0.305558 0.148887 0
0.294189 0.293962 0
0.294287 -0.293734 0
0.30561 -0.14863 0
0.149237 -0.305089 0
0.154958 -0.154401 0
0.30561 -0.14863 0
0.309398 0.00013371 0
0.154958 -0.154401 0
0.156854 9.26287e-05 0
0.149237 -0.305089 0
0.154958 -0.154401 0
0.000505266 -0.308926 0
0.000482899 -0.156369 0
0.154958 -0.154401 0
0.156854 9.26287e-05 0
0.000482899 -0.156369 0
0.00044362 4.69655e-05 0
0.309398 0.00013371 0
0.305558 0.148887 0
0.156854 9.26287e-05 0
0.154883 0.15458 0
0.305558 0.148887 0
0.294189 0.293962 0
0.154883 0.15458 0
0.149095 0.305251 0
0.156854 9.26287e-05 0
0.154883 0.15458 0
0.00044362 4.69655e-05 0
0.000391834 0.156461 0
0.154883 0.15458 0
0.149095 0.305251 0
0.000391834 0.156461 0
0.000332624 0.309014 0
0.000505266 -0.308926 0
0.000482899 -0.156369 0
-0.148242 -0.305147 0
-0.154004 -0.15448 0
0.000482899 -0.156369 0
0.00044362 4.69655e-05 0
-0.154004 -0.15448 0
-0.155975 1.56533e-06 0
-0.148242 -0.305147 0
-0.154004 -0.15448 0
-0.293337 -0.293844 0
-0.304692 -0.148779 0
-0.154004 -0.15448 0
-0.155975 1.56533e-06 0
-0.304692 -0.148779 0
-0.308542 -3.89323e-05 0
0.00044362 4.69655e-05 0
0.000391834 0.156461 0
-0.155975 1.56533e-06 0
-0.154102 0.154485 0
0.000391834 0.156461 0
0.000332624 0.309014 0
-0.154102 0.154485 0
-0.148428 0.305161 0
-0.155975 1.56533e-06 0
-0.154102 0.154485 0
-0.308542 -3.89323e-05 0
-0.304788 0.148707 0
-0.154102 0.154485 0
-0.148428 0.305161 0
-0.304788 0.148707 0
-0.293519 0.293791 0
-0.293337 -0.293844 0
-0.304692 -0.148779 0
-0.431203 -0.275296 0
-0.447867 -0.139405 0
-0.304692 -0.148779 0
-0.308542 -3.89323e-05 0
-0.447867 -0.139405 0
-0.453498 -7.0775e-05 0
-0.431203 -0.275296 0
-0.447867 -0.139405 0
-0.55845 -0.249962 0
-0.580007 -0.126591 0
-0.447867 -0.139405 0
-0.453498 -7.0775e-05 0
-0.580007 -0.126591 0
-0.587275 -9.16248e-05 0
-0.308542 -3.89323e-05 0
-0.304788 0.148707 0
-0.453498 -7.0775e-05 0
-0.447952 0.139273 0
-0.304788 0.148707 0
-0.293519 0.293791 0
-0.447952 0.139273 0
-0.431365 0.27519 0
-0.453498 -7.0775e-05 0
-0.447952 0.139273 0
-0.587275 -9.16248e-05 0
-0.580072 0.126418 0
-0.447952 0.139273 0
-0.431365 0.27519 0
-0.580072 0.126418 0
-0.558574 0.249821 0
-0.55845 -0.249962 0
-0.580007 -0.126591 0
-0.671955 -0.218472 0
-0.697867 -0.110653 0
-0.580007 -0.126591 0
-0.587275 -9.16248e-05 0
-0.697867 -0.110653 0
-0.706589 -0.000100669 0
-0.671955 -0.218472 0
-0.697867 -0.110653 0
-0.768934 -0.181603 0
-0.798561 -0.0919869 0
-0.697867 -0.110653 0
-0.706589 -0.000100669 0
-0.798561 -0.0919869 0
-0.808518 -9.87864e-05 0
-0.587275 -9.16248e-05 0
-0.580072 0.126418 0
-0.706589 -0.000100669 0
-0.697903 0.110462 0
-0.580072 0.126418 0
-0.558574 0.249821 0
-0.697903 0.110462 0
-0.672023 0.218314 0
-0.706589 -0.000100669 0
-0.697903 0.110462 0
-0.808518 -9.87864e-05 0
-0.798558 0.0917995 0
-0.697903 0.110462 0
-0.672023 0.218314 0
-0.798558 0.0917995 0
-0.76893 0.181446 0
-0.768934 -0.181603 0
-0.798561 -0.0919869 0
-0.847014 -0.140269 0
-0.879617 -0.0710549 0
-0.798561 -0.0919869 0
-0.808518 -9.87864e-05 0
-0.879617 -0.0710549 0
-0.890558 -8.71687e-05 0
-0.847014 -0.140269 0
-0.879617 -0.0710549 0
-0.904293 -0.0954837 0
-0.939078 -0.0483734 0
-0.879617 -0.0710549 0
-0.890558 -8.71687e-05 0
-0.939078 -0.0483734 0
-0.950736 -6.89696e-05 0
-0.808518 -9.87864e-05 0
-0.798558 0.0917995 0
-0.890558 -8.71687e-05 0
-0.87957 0.0708891 0
-0.798558 0.0917995 0
-0.76893 0.181446 0
-0.87957 0.0708891 0
-0.846924 0.140128 0
-0.890558 -8.71687e-05 0
-0.87957 0.0708891 0
-0.950736 -6.89696e-05 0
-0.938983 0.0482421 0
-0.87957 0.0708891 0
-0.846924 0.140128 0
-0.938983 0.0482421 0
-0.904113 0.0953724 0
-0.904293 -0.0954837 0
-0.939078 -0.0483734 0
-0.939254 -0.0483542 0
-0.975338 -0.0245041 0
-0.939078 -0.0483734 0
-0.950736 -6.89696e-05 0
-0.975338 -0.0245041 0
-0.987401 -4.80534e-05 0
-0.939254 -0.0483542 0
-0.975338 -0.0245041 0
-0.951057 -3.78437e-17 0
-0.987688 -1.91577e-17 0
-0.975338 -0.0245041 0
-0.987401 -4.80534e-05 0