# vtk DataFile Version 3.0
#This file was generated by the deal.II library on 2026/6/8 at 18:00:31
ASCII
DATASET UNSTRUCTURED_GRID

POINTS 1600 double
0 0 0
0.05 0 0
0 0.05 0
0.05 0.05 0
0.05 0 0
0.1 0 0
0.05 0.05 0
0.1 0.05 0
0 0.05 0
0.05 0.05 0
0 0.1 0
0.05 0.1 0
0.05 0.05 0
0.1 0.05 0
0.05 0.1 0
0.1 0.1 0
0.1 0 0
0.15 0 0
0.1 0.05 0
0.15 0.05 0
0.15 0 0
0.2 0 0
0.15 0.05 0
0.2 0.05 0
0.1 0.05 0
0.15 0.05 0
0.1 0.1 0
0.15 0.1 0
0.15 0.05 0
0.2 0.05 0
0.15 0.1 0
0.2 0.1 0
0 0.1 0
0.05 0.1 0
0 0.15 0
0.05 0.15 0
0.05 0.1 0
0.1 0.1 0
0.05 0.15 0
0.1 0.15 0
0 0.15 0
0.05 0.15 0
0 0.2 0
0.05 0.2 0
0.05 0.15 0
0.1 0.15 0
0.05 0.2 0
0.1 0.2 0
0.1 0.1 0
0.15 0.1 0
0.1 0.15 0
0.15 0.15 0
0.15 0.1 0
0.2 0.1 0
0.15 0.15 0
0.2 0.15 0
0.1 0.15 0
0.15 0.15 0
0.1 0.2 0
0.15 0.2 0
0.15 0.15 0
0.2 0.15 0
0.15 0.2 0
0.2 0.2 0
0 0.2 0
0.05 0.2 0
0 0.25 0
0.05 0.25 0
0.05 0.2 0
0.1 0.2 0
0.05 0.25 0
0.1 0.25 0
0 0.25 0
0.05 0.25 0
0 0.3 0
0.05 0.3 0
0.05 0.25 0
0.1 0.25 0
0.05 0.3 0
0.1 0.3 0
0.1 0.2 0
0.15 0.2 0
0.1 0.25 0
0.15 0.25 0
0.15 0.2 0
0.2 0.2 0
0.15 0.25 0
0.2 0.25 0
0.1 0.25 0
0.15 0.25 0
0.1 0.3 0
0.15 0.3 0
0.15 0.25 0
0.2 0.25 0
0.15 0.3 0
0.2 0.3 0
0 0.3 0
0.05 0.3 0
0 0.35 0
0.05 0.35 0
0.05 0.3 0
0.1 0.3 0
0.05 0.35 0
0.1 0.35 0
0 0.35 0
0.05 0.35 0
0 0.4 0
0.05 0.4 0
0.05 0.35 0
0.1 0.35 0
0.05 0.4 0
0.1 0.4 0
0.1 0.3 0
0.15 0.3 0
0.1 0.35 0
0.15 0.35 0
0.15 0.3 0
0.2 0.3 0
0.15 0.35 0
0.2 0.35 0
0.1 0.35 0
0.15 0.35 0
0.1 0.4 0
0.15 0.4 0
0.15 0.35 0
0.2 0.35 0
0.15 0.4 0
0.2 0.4 0
0 0.4 0
0.05 0.4 0
0 0.45 0
0.05 0.45 0
0.05 0.4 0
0.1 0.4 0
0.05 0.45 0
0.1 0.45 0
0 0.45 0
0.05 0.45 0
0 0.5 0
0.05 0.5 0
0.05 0.45 0
0.1 0.45 0
0.05 0.5 0
0.1 0.5 0
0.1 0.4 0
0.15 0.4 0
0.1 0.45 0
0.15 0.45 0
0.15 0.4 0
0.2 0.4 0
0.15 0.45 0
0.2 0.45 0
0.1 0.45 0
0.15 0.45 0
0.1 0.5 0
0.15 0.5 0
0.15 0.45 0
0.2 0.45 0
0.15 0.5 0
0.2 0.5 0
0 0.5 0
0.05 0.5 0
0 0.55 0
0.05 0.55 0
0.05 0.5 0
0.1 0.5 0
0.05 0.55 0
0.1 0.55 0
0 0.55 0
0.05 0.55 0
0 0.6 0
0.05 0.6 0
0.05 0.55 0
0.1 0.55 0
0.05 0.6 0
0.1 0.6 0
0.1 0.5 0
0.15 0.5 0
0.1 0.55 0
0.15 0.55 0
0.15 0.5 0
0.2 0.5 0
0.15 0.55 0
0.2 0.55 0
0.1 0.55 0
0.15 0.55 0
0.1 0.6 0
0.15 0.6 0
0.15 0.55 0
0.2 0.55 0
0.15 0.6 0
0.2 0.6 0
0 0.6 0
0.05 0.6 0
0 0.65 0
0.05 0.65 0
0.05 0.6 0
0.1 0.6 0
0.05 0.65 0
0.1 0.65 0
0 0.65 0
0.05 0.65 0
0 0.7 0
0.05 0.7 0
0.05 0.65 0
0.1 0.65 0
0.05 0.7 0
0.1 0.7 0
0.1 0.6 0
0.15 0.6 0
0.1 0.65 0
0.15 0.65 0
0.15 0.6 0
0.2 0.6 0
0.15 0.65 0
0.2 0.65 0
0.1 0.65 0
0.15 0.65 0
0.1 0.7 0
0.15 0.7 0
0.15 0.65 0
0.2 0.65 0
0.15 0.7 0
0.2 0.7 0
0 0.7 0
0.05 0.7 0
0 0.75 0
0.05 0.75 0
0.05 0.7 0
0.1 0.7 0
0.05 0.75 0
0.1 0.75 0
0 0.75 0
0.05 0.75 0
0 0.8 0
0.05 0.8 0
0.05 0.75 0
0.1 0.75 0
0.05 0.8 0
0.1 0.8 0
0.1 0.7 0
0.15 0.7 0
0.1 0.75 0
0.15 0.75 0
0.15 0.7 0
0.2 0.7 0
0.15 0.75 0
0.2 0.75 0
0.1 0.75 0
0.15 0.75 0
0.1 0.8 0
0.15 0.8 0
0.15 0.75 0
0.2 0.75 0
0.15 0.8 0
0.2 0.8 0
0 0.8 0
0.05 0.8 0
0 0.85 0
0.05 0.85 0
0.05 0.8 0
0.1 0.8 0
0.05 0.85 0
0.1 0.85 0
0 0.85 0
0.05 0.85 0
0 0.9 0
0.05 0.9 0
0.05 0.85 0
0.1 0.85 0
0.05 0.9 0
0.1 0.9 0
0.1 0.8 0
0.15 0.8 0
0.1 0.85 0
0.15 0.85 0
0.15 0.8 0
0.2 0.8 0
0.15 0.85 0
0.2 0.85 0
0.1 0.85 0
0.15 0.85 0
0.1 0.9 0
0.15 0.9 0
0.15 0.85 0
0.2 0.85 0
0.15 0.9 0
0.2 0.9 0
0 0.9 0
0.05 0.9 0
0 0.95 0
0.05 0.95 0
0.05 0.9 0
0.1 0.9 0
0.05 0.95 0
0.1 0.95 0
0 0.95 0
0.05 0.95 0
0 1 0
0.05 1 0
0.05 0.95 0
0.1 0.95 0
0.05 1 0
0.1 1 0
0.1 0.9 0
0.15 0.9 0
0.1 0.95 0
0.15 0.95 0
0.15 0.9 0
0.2 0.9 0
0.15 0.95 0
0.2 0.95 0
0.1 0.95 0
0.15 0.95 0
0.1 1 0
0.15 1 0
0.15 0.95 0
0.2 0.95 0
0.15 1 0
0.2 1 0
0.2 0 0
0.25 0 0
0.2 0.05 0
0.25 0.05 0
0.25 0 0
0.3 0 0
0.25 0.05 0
0.3 0.05 0
0.2 0.05 0
0.25 0.05 0
0.2 0.1 0
0.25 0.1 0
0.25 0.05 0
0.3 0.05 0
0.25 0.1 0
0.3 0.1 0
0.3 0 0
0.35 0 0
0.3 0.05 0
0.35 0.05 0
0.35 0 0
0.4 0 0
0.35 0.05 0
0.4 0.05 0
0.3 0.05 0
0.35 0.05 0
0.3 0.1 0
0.35 0.1 0
0.35 0.05 0
0.4 0.05 0
0.35 0.1 0
0.4 0.1 0
0.2 0.1 0
0.25 0.1 0
0.2 0.15 0
0.25 0.15 0
0.25 0.1 0
0.3 0.1 0
0.25 0.15 0
0.3 0.15 0
0.2 0.15 0
0.25 0.15 0
0.2 0.2 0
0.25 0.2 0
0.25 0.15 0
0.3 0.15 0
0.25 0.2 0
0.3 0.2 0
0.3 0.1 0
0.35 0.1 0
0.3 0.15 0
0.35 0.15 0
0.35 0.1 0
0.4 0.1 0
0.35 0.15 0
0.4 0.15 0
0.3 0.15 0
0.35 0.15 0
0.3 0.2 0
0.35 0.2 0
0.35 0.15 0
0.4 0.15 0
0.35 0.2 0
0.4 0.2 0
0.2 0.2 0
0.25 0.2 0
0.2 0.25 0
0.25 0.25 0
0.25 0.2 0
0.3 0.2 0
0.25 0.25 0
0.3 0.25 0
0.2 0.25 0
0.25 0.25 0
0.2 0.3 0
0.25 0.3 0
0.25 0.25 0
0.3 0.25 0
0.25 0.3 0
0.3 0.3 0
0.3 0.2 0
0.35 0.2 0
0.3 0.25 0
0.35 0.25 0
0.35 0.2 0
0.4 0.2 0
0.35 0.25 0
0.4 0.25 0
0.3 0.25 0
0.35 0.25 0
0.3 0.3 0
0.35 0.3 0
0.35 0.25 0
0.4 0.25 0
0.35 0.3 0
0.4 0.3 0
0.2 0.3 0
0.25 0.3 0
0.2 0.35 0
0.25 0.35 0
0.25 0.3 0
0.3 0.3 0
0.25 0.35 0
0.3 0.35 0
0.2 0.35 0
0.25 0.35 0
0.2 0.4 0
0.25 0.4 0
0.25 0.35 0
0.3 0.35 0
0.25 0.4 0
0.3 0.4 0
0.3 0.3 0
0.35 0.3 0
0.3 0.35 0
0.35 0.35 0
0.35 0.3 0
0.4 0.3 0
0.35 0.35 0
0.4 0.35 0
0.3 0.35 0
0.35 0.35 0
0.3 0.4 0
0.35 0.4 0
0.35 0.35 0
0.4 0.35 0
0.35 0.4 0
0.4 0.4 0
0.2 0.4 0
0.25 0.4 0
0.2 0.45 0
0.25 0.45 0
0.25 0.4 0
0.3 0.4 0
0.25 0.45 0
0.3 0.45 0
0.2 0.45 0
0.25 0.45 0
0.2 0.5 0
0.25 0.5 0
0.25 0.45 0
0.3 0.45 0
0.25 0.5 0
0.3 0.5 0
0.3 0.4 0
0.35 0.4 0
0.3 0.45 0
0.35 0.45 0
0.35 0.4 0
0.4 0.4 0
0.35 0.45 0
0.4 0.45 0
0.3 0.45 0
0.35 0.45 0
0.3 0.5 0
0.35 0.5 0
0.35 0.45 0
0.4 0.45 0
0.35 0.5 0
0.4 0.5 0
0.2 0.5 0
0.25 0.5 0
0.2 0.55 0
0.25 0.55 0
0.25 0.5 0
0.3 0.5 0
0.25 0.55 0
0.3 0.55 0
0.2 0.55 0
0.25 0.55 0
0.2 0.6 0
0.25 0.6 0
0.25 0.55 0
0.3 0.55 0
0.25 0.6 0
0.3 0.6 0
0.3 0.5 0
0.35 0.5 0
0.3 0.55 0
0.35 0.55 0
0.35 0.5 0
0.4 0.5 0
0.35 0.55 0
0.4 0.55 0
0.3 0.55 0
0.35 0.55 0
0.3 0.6 0
0.35 0.6 0
0.35 0.55 0
0.4 0.55 0
0.35 0.6 0
0.4 0.6 0
0.2 0.6 0
0.25 0.6 0
0.2 0.65 0
0.25 0.65 0
0.25 0.6 0
0.3 0.6 0
0.25 0.65 0
0.3 0.65 0
0.2 0.65 0
0.25 0.65 0
0.2 0.7 0
0.25 0.7 0
0.25 0.65 0
0.3 0.65 0
0.25 0.7 0
0.3 0.7 0
0.3 0.6 0
0.35 0.6 0
0.3 0.65 0
0.35 0.65 0
0.35 0.6 0
0.4 0.6 0
0.35 0.65 0
0.4 0.65 0
0.3 0.65 0
0.35 0.65 0
0.3 0.7 0
0.35 0.7 0
0.35 0.65 0
0.4 0.65 0
0.35 0.7 0
0.4 0.7 0
0.2 0.7 0
0.25 0.7 0
0.2 0.75 0
0.25 0.75 0
0.25 0.7 0
0.3 0.7 0
0.25 0.75 0
0.3 0.75 0
0.2 0.75 0
0.25 0.75 0
0.2 0.8 0
0.25 0.8 0
0.25 0.75 0
0.3 0.75 0
0.25 0.8 0
0.3 0.8 0
0.3 0.7 0
0.35 0.7 0
0.3 0.75 0
0.35 0.75 0
0.35 0.7 0
0.4 0.7 0
0.35 0.75 0
0.4 0.75 0
0.3 0.75 0
0.35 0.75 0
0.3 0.8 0
0.35 0.8 0
0.35 0.75 0
0.4 0.75 0
0.35 0.8 0
0.4 0.8 0
0.2 0.8 0
0.25 0.8 0
0.2 0.85 0
0.25 0.85 0
0.25 0.8 0
0.3 0.8 0
0.25 0.85 0
0.3 0.85 0
0.2 0.85 0
0.25 0.85 0
0.2 0.9 0
0.25 0.9 0
0.25 0.85 0
0.3 0.85 0
0.25 0.9 0
0.3 0.9 0
0.3 0.8 0
0.35 0.8 0
0.3 0.85 0
0.35 0.85 0
0.35 0.8 0
0.4 0.8 0
0.35 0.85 0
0.4 0.85 0
0.3 0.85 0
0.35 0.85 0
0.3 0.9 0
0.35 0.9 0
0.35 0.85 0
0.4 0.85 0
0.35 0.9 0
0.4 0.9 0
0.2 0.9 0
0.25 0.9 0
0.2 0.95 0
0.25 0.95 0
0.25 0.9 0
0.3 0.9 0
0.25 0.95 0
0.3 0.95 0
0.2 0.95 0
0.25 0.95 0
0.2 1 0
0.25 1 0
0.25 0.95 0
0.3 0.95 0
0.25 1 0
0.3 1 0
0.3 0.9 0
0.35 0.9 0
0.3 0.95 0
0.35 0.95 0
0.35 0.9 0
0.4 0.9 0
0.35 0.95 0
0.4 0.95 0
0.3 0.95 0
0.35 0.95 0
0.3 1 0
0.35 1 0
0.35 0.95 0
0.4 0.95 0
0.35 1 0
0.4 1 0
0.4 0 0
0.45 0 0
0.4 0.05 0
0.45 0.05 0
0.45 0 0
0.5 0 0
0.45 0.05 0
0.5 0.05 0
0.4 0.05 0
0.45 0.05 0
0.4 0.1 0
0.45 0.1 0
0.45 0.05 0
0.5 0.05 0
0.45 0.1 0
0.5 0.1 0
0.5 0 0
0.55 0 0
0.5 0.05 0
0.55 0.05 0
0.55 0 0
0.6 0 0
0.55 0.05 0
0.6 0.05 0
0.5 0.05 0
0.55 0.05 0
0.5 0.1 0
0.55 0.1 0
0.55 0.05 0
0.6 0.05 0
0.55 0.1 0
0.6 0.1 0
0.4 0.1 0
0.45 0.1 0
0.4 0.15 0
0.45 0.15 0
0.45 0.1 0
0.5 0.1 0
0.45 0.15 0
0.5 0.15 0
0.4 0.15 0
0.45 0.15 0
0.4 0.2 0
0.45 0.2 0
0.45 0.15 0
0.5 0.15 0
0.45 0.2 0
0.5 0.2 0
0.5 0.1 0
0.55 0.1 0
0.5 0.15 0
0.55 0.15 0
0.55 0.1 0
0.6 0.1 0
0.55 0.15 0
0.6 0.15 0
0.5 0.15 0
0.55 0.15 0
0.5 0.2 0
0.55 0.2 0
0.55 0.15 0
0.6 0.15 0
0.55 0.2 0
0.6 0.2 0
0.4 0.2 0
0.45 0.2 0
0.4 0.25 0
0.45 0.25 0
0.45 0.2 0
0.5 0.2 0
0.45 0.25 0
0.5 0.25 0
0.4 0.25 0
0.45 0.25 0
0.4 0.3 0
0.45 0.3 0
0.45 0.25 0
0.5 0.25 0
0.45 0.3 0
0.5 0.3 0
0.5 0.2 0
0.55 0.2 0
0.5 0.25 0
0.55 0.25 0
0.55 0.2 0
0.6 0.2 0
0.55 0.25 0
0.6 0.25 0
0.5 0.25 0
0.55 0.25 0
0.5 0.3 0
0.55 0.3 0
0.55 0.25 0
0.6 0.25 0
0.55 0.3 0
0.6 0.3 0
0.4 0.3 0
0.45 0.3 0
0.4 0.35 0
0.45 0.35 0
0.45 0.3 0
0.5 0.3 0
0.45 0.35 0
0.5 0.35 0
0.4 0.35 0
0.45 0.35 0
0.4 0.4 0
0.45 0.4 0
0.45 0.35 0
0.5 0.35 0
0.45 0.4 0
0.5 0.4 0
0.5 0.3 0
0.55 0.3 0
0.5 0.35 0
0.55 0.35 0
0.55 0.3 0
0.6 0.3 0
0.55 0.35 0
0.6 0.35 0
0.5 0.35 0
0.55 0.35 0
0.5 0.4 0
0.55 0.4 0
0.55 0.35 0
0.6 0.35 0
0.55 0.4 0
0.6 0.4 0
0.4 0.4 0
0.45 0.4 0
0.4 0.45 0
0.45 0.45 0
0.45 0.4 0
0.5 0.4 0
0.45 0.45 0
0.5 0.45 0
0.4 0.45 0
0.45 0.45 0
0.4 0.5 0
0.45 0.5 0
0.45 0.45 0
0.5 0.45 0
0.45 0.5 0
0.5 0.5 0
0.5 0.4 0
0.55 0.4 0
0.5 0.45 0
0.55 0.45 0
0.55 0.4 0
0.6 0.4 0
0.55 0.45 0
0.6 0.45 0
0.5 0.45 0
0.55 0.45 0
0.5 0.5 0
0.55 0.5 0
0.55 0.45 0
0.6 0.45 0
0.55 0.5 0
0.6 0.5 0
0.4 0.5 0
0.45 0.5 0
0.4 0.55 0
0.45 0.55 0
0.45 0.5 0
0.5 0.5 0
0.45 0.55 0
0.5 0.55 0
0.4 0.55 0
0.45 0.55 0
0.4 0.6 0
0.45 0.6 0
0.45 0.55 0
0.5 0.55 0
0.45 0.6 0
0.5 0.6 0
0.5 0.5 0
0.55 0.5 0
0.5 0.55 0
0.55 0.55 0
0.55 0.5 0
0.6 0.5 0
0.55 0.55 0
0.6 0.55 0
0.5 0.55 0
0.55 0.55 0
0.5 0.6 0
0.55 0.6 0
0.55 0.55 0
0.6 0.55 0
0.55 0.6 0
0.6 0.6 0
0.4 0.6 0
0.45 0.6 0
0.4 0.65 0
0.45 0.65 0
0.45 0.6 0
0.5 0.6 0
0.45 0.65 0
0.5 0.65 0
0.4 0.65 0
0.45 0.65 0
0.4 0.7 0
0.45 0.7 0
0.45 0.65 0
0.5 0.65 0
0.45 0.7 0
0.5 0.7 0
0.5 0.6 0
0.55 0.6 0
0.5 0.65 0
0.55 0.65 0
0.55 0.6 0
0.6 0.6 0
0.55 0.65 0
0.6 0.65 0
0.5 0.65 0
0.55 0.65 0
0.5 0.7 0
0.55 0.7 0
0.55 0.65 0
0.6 0.65 0
0.55 0.7 0
0.6 0.7 0
0.4 0.7 0
0.45 0.7 0
0.4 0.75 0
0.45 0.75 0
0.45 0.7 0
0.5 0.7 0
0.45 0.75 0
0.5 0.75 0
0.4 0.75 0
0.45 0.75 0
0.4 0.8 0
0.45 0.8 0
0.45 0.75 0
0.5 0.75 0
0.45 0.8 0
0.5 0.8 0
0.5 0.7 0
0.55 0.7 0
0.5 0.75 0
0.55 0.75 0
0.55 0.7 0
0.6 0.7 0
0.55 0.75 0
0.6 0.75 0
0.5 0.75 0
0.55 0.75 0
0.5 0.8 0
0.55 0.8 0
0.55 0.75 0
0.6 0.75 0
0.55 0.8 0
0.6 0.8 0
0.4 0.8 0
0.45 0.8 0
0.4 0.85 0
0.45 0.85 0
0.45 0.8 0
0.5 0.8 0
0.45 0.85 0
0.5 0.85 0
0.4 0.85 0
0.45 0.85 0
0.4 0.9 0
0.45 0.9 0
0.45 0.85 0
[...]
POINT_DATA 1600
VECTORS velocity double
0 0 0
0.156434 0 0
0 -0.156434 0
0.154266 -0.154577 0
0.156434 0 0
0.309017 0 0
0.154266 -0.154577 0
0.304784 -0.14884 0
0 -0.156434 0
0.154266 -0.154577 0
0 -0.309017 0
0.148622 -0.305322 0
0.154266 -0.154577 0
0.304784 -0.14884 0
0.148622 -0.305322 0
0.293679 -0.294023 0
0.309017 0 0
0.45399 0 0
0.304784 -0.14884 0
0.447892 -0.139465 0
0.45399 0 0
0.587785 0 0
0.447892 -0.139465 0
0.580041 -0.126606 0
0.304784 -0.14884 0
0.447892 -0.139465 0
0.293679 -0.294023 0
0.431548 -0.275508 0
0.447892 -0.139465 0
0.580041 -0.126606 0
0.431548 -0.275508 0
0.558795 -0.250089 0
0 -0.309017 0
0.148622 -0.305322 0
0 -0.45399 0
0.139324 -0.448613 0
0.148622 -0.305322 0
0.293679 -0.294023 0
0.139324 -0.448613 0
0.275281 -0.431985 0
0 -0.45399 0
0.139324 -0.448613 0
0 -0.587785 0
0.126543 -0.580863 0
0.139324 -0.448613 0
0.275281 -0.431985 0
0.126543 -0.580863 0
0.249992 -0.559274 0
0.293679 -0.294023 0
0.431548 -0.275508 0
0.275281 -0.431985 0
0.404455 -0.404744 0
0.431548 -0.275508 0
0.558795 -0.250089 0
0.404455 -0.404744 0
0.523658 -0.367368 0
0.275281 -0.431985 0
0.404455 -0.404744 0
0.249992 -0.559274 0
0.367257 -0.523971 0
0.404455 -0.404744 0
0.523658 -0.367368 0
0.367257 -0.523971 0
0.47545 -0.475555 0
0 -0.587785 0
0.126543 -0.580863 0
0 -0.707107 0
0.110651 -0.698771 0
0.126543 -0.580863 0
0.249992 -0.559274 0
0.110651 -0.698771 0
0.218565 -0.672752 0
0 -0.707107 0
0.110651 -0.698771 0
0 -0.809017 0
0.0920023 -0.799413 0
0.110651 -0.698771 0
0.218565 -0.672752 0
0.0920023 -0.799413 0
0.181697 -0.76963 0
0.249992 -0.559274 0
0.367257 -0.523971 0
0.218565 -0.672752 0
0.321067 -0.630253 0
0.367257 -0.523971 0
0.47545 -0.475555 0
0.321067 -0.630253 0
0.41565 -0.572015 0
0.218565 -0.672752 0
0.321067 -0.630253 0
0.181697 -0.76963 0
0.2669 -0.720993 0
0.321067 -0.630253 0
0.41565 -0.572015 0
0.2669 -0.720993 0
0.345521 -0.654396 0
0 -0.809017 0
0.0920023 -0.799413 0
0 -0.891007 0
0.0711053 -0.880316 0
0.0920023 -0.799413 0
0.181697 -0.76963 0
0.0711053 -0.880316 0
0.140411 -0.847533 0
0 -0.891007 0
0.0711053 -0.880316 0
0 -0.951057 0
0.0484367 -0.939503 0
0.0711053 -0.880316 0
0.140411 -0.847533 0
0.0484367 -0.939503 0
0.0956271 -0.904552 0
0.181697 -0.76963 0
0.2669 -0.720993 0
0.140411 -0.847533 0
0.206253 -0.793968 0
0.2669 -0.720993 0
0.345521 -0.654396 0
0.206253 -0.793968 0
0.267011 -0.720664 0
0.140411 -0.847533 0
0.206253 -0.793968 0
0.0956271 -0.904552 0
0.14046 -0.847388 0
0.206253 -0.793968 0
0.267011 -0.720664 0
0.14046 -0.847388 0
0.18183 -0.769184 0
0 -0.951057 0
0.0484367 -0.939503 0
0 -0.987688 0
0.0245927 -0.975536 0
0.0484367 -0.939503 0
0.0956271 -0.904552 0
0.0245927 -0.975536 0
0.0485386 -0.939291 0
0 -0.987688 0
0.0245927 -0.975536 0
0 -1 0
0.000126491 -0.987545 0
0.0245927 -0.975536 0
0.0485386 -0.939291 0
0.000126491 -0.987545 0
0.000214441 -0.950901 0
0.0956271 -0.904552 0
0.14046 -0.847388 0
0.0485386 -0.939291 0
0.0712882 -0.879941 0
0.14046 -0.847388 0
0.18183 -0.769184 0
0.0712882 -0.879941 0
0.0922787 -0.79876 0
0.0485386 -0.939291 0
0.0712882 -0.879941 0
0.000214441 -0.950901 0
0.000295528 -0.890832 0
0.0712882 -0.879941 0
0.0922787 -0.79876 0
0.000295528 -0.890832 0
0.000366154 -0.808667 0
0 -1 0
0.000126491 -0.987545 0
0 -0.987688 0
-0.0243313 -0.975245 0
0.000126491 -0.987545 0
0.000214441 -0.950901 0
-0.0243313 -0.975245 0
-0.0480828 -0.939101 0
0 -0.987688 0
-0.0243313 -0.975245 0
0 -0.951057 0
-0.0482034 -0.938947 0
-0.0243313 -0.975245 0
-0.0480828 -0.939101 0
-0.0482034 -0.938947 0
-0.0952331 -0.90419 0
0.000214441 -0.950901 0
0.000295528 -0.890832 0
-0.0480828 -0.939101 0
-0.0706508 -0.879793 0
0.000295528 -0.890832 0
0.000366154 -0.808667 0
-0.0706508 -0.879793 0
-0.0914855 -0.798663 0
-0.0480828 -0.939101 0
-0.0706508 -0.879793 0
-0.0952331 -0.90419 0
-0.139913 -0.847105 0
-0.0706508 -0.879793 0
-0.0914855 -0.798663 0
-0.139913 -0.847105 0
-0.181153 -0.769001 0
0 -0.951057 0
-0.0482034 -0.938947 0
0 -0.891007 0
-0.0708862 -0.879543 0
-0.0482034 -0.938947 0
-0.0952331 -0.90419 0
-0.0708862 -0.879543 0
-0.140031 -0.847027 0
0 -0.891007 0
-0.0708862 -0.879543 0
0 -0.809017 0
-0.0918312 -0.798499 0
-0.0708862 -0.879543 0
-0.140031 -0.847027 0
-0.0918312 -0.798499 0
-0.181405 -0.769021 0
-0.0952331 -0.90419 0
-0.139913 -0.847105 0
-0.140031 -0.847027 0
-0.205716 -0.793574 0
-0.139913 -0.847105 0
-0.181153 -0.769001 0
-0.205716 -0.793574 0
-0.266341 -0.720411 0
-0.140031 -0.847027 0
-0.205716 -0.793574 0
-0.181405 -0.769021 0
-0.266491 -0.720523 0
-0.205716 -0.793574 0
-0.266341 -0.720411 0
-0.266491 -0.720523 0
-0.345009 -0.6541 0
0 -0.809017 0
-0.0918312 -0.798499 0
0 -0.707107 0
-0.11052 -0.697807 0
-0.0918312 -0.798499 0
-0.181405 -0.769021 0
-0.11052 -0.697807 0
-0.218326 -0.672087 0
0 -0.707107 0
-0.11052 -0.697807 0
0 -0.587785 0
-0.126484 -0.579957 0
-0.11052 -0.697807 0
-0.218326 -0.672087 0
-0.126484 -0.579957 0
-0.24986 -0.558612 0
-0.181405 -0.769021 0
-0.266491 -0.720523 0
-0.218326 -0.672087 0
-0.320737 -0.629742 0
-0.266491 -0.720523 0
-0.345009 -0.6541 0
-0.320737 -0.629742 0
-0.41523 -0.571703 0
-0.218326 -0.672087 0
-0.320737 -0.629742 0
-0.24986 -0.558612 0
-0.36708 -0.523455 0
-0.320737 -0.629742 0
-0.41523 -0.571703 0
-0.36708 -0.523455 0
-0.475228 -0.47525 0
0 -0.587785 0
-0.126484 -0.579957 0
0 -0.45399 0
-0.139343 -0.447859 0
-0.126484 -0.579957 0
-0.24986 -0.558612 0
-0.139343 -0.447859 0
-0.275261 -0.431397 0
0 -0.45399 0
-0.139343 -0.447859 0
0 -0.309017 0
-0.148754 -0.304788 0
-0.139343 -0.447859 0
-0.275261 -0.431397 0
-0.148754 -0.304788 0
-0.293836 -0.29359 0
-0.24986 -0.558612 0
-0.36708 -0.523455 0
-0.275261 -0.431397 0
-0.40442 -0.404263 0
-0.36708 -0.523455 0
-0.475228 -0.47525 0
-0.40442 -0.404263 0
-0.523614 -0.367079 0
-0.275261 -0.431397 0
-0.40442 -0.404263 0
-0.293836 -0.29359 0
-0.431704 -0.275133 0
-0.40442 -0.404263 0
-0.523614 -0.367079 0
-0.431704 -0.275133 0
-0.558947 -0.249843 0
0 -0.309017 0
-0.148754 -0.304788 0
0 -0.156434 0
-0.154532 -0.154275 0
-0.148754 -0.304788 0
-0.293836 -0.29359 0
-0.154532 -0.154275 0
-0.305228 -0.148593 0
0 -0.156434 0
-0.154532 -0.154275 0
0 -1.22465e-16 0
-0.156434 -1.20957e-16 0
-0.154532 -0.154275 0
-0.305228 -0.148593 0
-0.156434 -1.20957e-16 0
-0.309017 -1.16471e-16 0
-0.293836 -0.29359 0
-0.431704 -0.275133 0
-0.305228 -0.148593 0
-0.448448 -0.139256 0
-0.431704 -0.275133 0
-0.558947 -0.249843 0
-0.448448 -0.139256 0
-0.580632 -0.126463 0
-0.305228 -0.148593 0
-0.448448 -0.139256 0
-0.309017 -1.16471e-16 0
-0.45399 -1.09117e-16 0
-0.448448 -0.139256 0
-0.580632 -0.126463 0
-0.45399 -1.09117e-16 0
-0.587785 -9.9076e-17 0
0.587785 0 0
0.707107 0 0
0.580041 -0.126606 0
0.697931 -0.110642 0
0.707107 0 0
0.809017 0 0
0.697931 -0.110642 0
0.798647 -0.0919361 0
0.580041 -0.126606 0
0.697931 -0.110642 0
0.558795 -0.250089 0
0.672277 -0.21855 0
0.697931 -0.110642 0
0.798647 -0.0919361 0
0.672277 -0.21855 0
0.769209 -0.181592 0
0.809017 0 0
0.891007 0 0
0.798647 -0.0919361 0
0.879699 -0.070984 0
0.891007 0 0
0.951057 0 0
0.879699 -0.070984 0
0.939097 -0.0482842 0
0.798647 -0.0919361 0
0.879699 -0.070984 0
0.769209 -0.181592 0
0.847209 -0.140211 0
0.879699 -0.070984 0
0.939097 -0.0482842 0
0.847209 -0.140211 0
0.904366 -0.0953787 0
0.558795 -0.250089 0
0.672277 -0.21855 0
0.523658 -0.367368 0
0.629955 -0.321031 0
0.672277 -0.21855 0
0.769209 -0.181592 0
0.629955 -0.321031 0
0.720753 -0.266743 0
0.523658 -0.367368 0
0.629955 -0.321031 0
0.47545 -0.475555 0
0.571934 -0.415585 0
0.629955 -0.321031 0
0.720753 -0.266743 0
0.571934 -0.415585 0
0.654359 -0.345319 0
0.769209 -0.181592 0
0.847209 -0.140211 0
0.720753 -0.266743 0
0.79382 -0.205967 0
0.847209 -0.140211 0
0.904366 -0.0953787 0
0.79382 -0.205967 0
0.847364 -0.140119 0
0.720753 -0.266743 0
0.79382 -0.205967 0
0.654359 -0.345319 0
0.72069 -0.266655 0
0.79382 -0.205967 0
0.847364 -0.140119 0
0.72069 -0.266655 0
0.769292 -0.181413 0
0.47545 -0.475555 0
0.571934 -0.415585 0
0.41565 -0.572015 0
0.500014 -0.49991 0
0.571934 -0.415585 0
0.654359 -0.345319 0
0.500014 -0.49991 0
0.57208 -0.415395 0
0.41565 -0.572015 0
0.500014 -0.49991 0
0.345521 -0.654396 0
0.415643 -0.571926 0
0.500014 -0.49991 0
0.57208 -0.415395 0
0.415643 -0.571926 0
0.475536 -0.475251 0
0.654359 -0.345319 0
0.72069 -0.266655 0
0.57208 -0.415395 0
0.630067 -0.320784 0
0.72069 -0.266655 0
0.769292 -0.181413 0
0.630067 -0.320784 0
0.672552 -0.218249 0
0.57208 -0.415395 0
0.630067 -0.320784 0
0.475536 -0.475251 0
0.523734 -0.367028 0
0.630067 -0.320784 0
0.672552 -0.218249 0
0.523734 -0.367028 0
0.559044 -0.249723 0
0.345521 -0.654396 0
0.415643 -0.571926 0
0.267011 -0.720664 0
0.321201 -0.629855 0
0.415643 -0.571926 0
0.475536 -0.475251 0
0.321201 -0.629855 0
0.367487 -0.523415 0
0.267011 -0.720664 0
0.321201 -0.629855 0
0.18183 -0.769184 0
0.218725 -0.672278 0
0.321201 -0.629855 0
0.367487 -0.523415 0
0.218725 -0.672278 0
0.250236 -0.558696 0
0.475536 -0.475251 0
0.523734 -0.367028 0
0.367487 -0.523415 0
0.404726 -0.40424 0
0.523734 -0.367028 0
0.559044 -0.249723 0
0.404726 -0.40424 0
0.431989 -0.275051 0
0.367487 -0.523415 0
0.404726 -0.40424 0
0.250236 -0.558696 0
0.275578 -0.431495 0
0.404726 -0.40424 0
0.431989 -0.275051 0
0.275578 -0.431495 0
0.294119 -0.293602 0
0.18183 -0.769184 0
0.218725 -0.672278 0
0.0922787 -0.79876 0
0.110994 -0.698149 0
0.218725 -0.672278 0
0.250236 -0.558696 0
0.110994 -0.698149 0
0.12697 -0.580215 0
0.0922787 -0.79876 0
0.110994 -0.698149 0
0.000366154 -0.808667 0
0.000421771 -0.706829 0
0.110994 -0.698149 0
0.12697 -0.580215 0
0.000421771 -0.706829 0
0.000460303 -0.587443 0
0.250236 -0.558696 0
0.275578 -0.431495 0
0.12697 -0.580215 0
0.139806 -0.448122 0
0.275578 -0.431495 0
0.294119 -0.293602 0
0.139806 -0.448122 0
0.14918 -0.304919 0
0.12697 -0.580215 0
0.139806 -0.448122 0
0.000460303 -0.587443 0
0.000478444 -0.453722 0
0.139806 -0.448122 0
0.14918 -0.304919 0
0.000478444 -0.453722 0
0.000476301 -0.308737 0
0.000366154 -0.808667 0
0.000421771 -0.706829 0
-0.0914855 -0.798663 0
-0.110077 -0.698103 0
0.000421771 -0.706829 0
0.000460303 -0.587443 0
-0.110077 -0.698103 0
-0.125972 -0.580203 0
-0.0914855 -0.798663 0
-0.110077 -0.698103 0
-0.181153 -0.769001 0
-0.217944 -0.672189 0
-0.110077 -0.698103 0
-0.125972 -0.580203 0
-0.217944 -0.672189 0
-0.249382 -0.558676 0
0.000460303 -0.587443 0
0.000478444 -0.453722 0
-0.125972 -0.580203 0
-0.138769 -0.448157 0
0.000478444 -0.453722 0
0.000476301 -0.308737 0
-0.138769 -0.448157 0
-0.148151 -0.304971 0
-0.125972 -0.580203 0
-0.138769 -0.448157 0
-0.249382 -0.558676 0
-0.274684 -0.431559 0
-0.138769 -0.448157 0
-0.148151 -0.304971 0
-0.274684 -0.431559 0
-0.293219 -0.293702 0
-0.181153 -0.769001 0
-0.217944 -0.672189 0
-0.266341 -0.720411 0
-0.320421 -0.629725 0
-0.217944 -0.672189 0
-0.249382 -0.558676 0
-0.320421 -0.629725 0
-0.366629 -0.52339 0
-0.266341 -0.720411 0
-0.320421 -0.629725 0
-0.345009 -0.6541 0
-0.415048 -0.571763 0
-0.320421 -0.629725 0
-0.366629 -0.52339 0
-0.415048 -0.571763 0
-0.474878 -0.475224 0
-0.249382 -0.558676 0
-0.274684 -0.431559 0
-0.366629 -0.52339 0
-0.403823 -0.404321 0
-0.274684 -0.431559 0
-0.293219 -0.293702 0
-0.403823 -0.404321 0
-0.431077 -0.275192 0
-0.366629 -0.52339 0
-0.403823 -0.404321 0
-0.474878 -0.475224 0
-0.523029 -0.367115 0
-0.403823 -0.404321 0
-0.431077 -0.275192 0
-0.523029 -0.367115 0
-0.558315 -0.249884 0
-0.345009 -0.6541 0
-0.415048 -0.571763 0
-0.41523 -0.571703 0
-0.49951 -0.499726 0
-0.415048 -0.571763 0
-0.474878 -0.475224 0
-0.49951 -0.499726 0
-0.571508 -0.415363 0
-0.41523 -0.571703 0
-0.49951 -0.499726 0
-0.475228 -0.47525 0
-0.571655 -0.415405 0
-0.49951 -0.499726 0
-0.571508 -0.415363 0
-0.571655 -0.415405 0
-0.65402 -0.345278 0
-0.474878 -0.475224 0
-0.523029 -0.367115 0
-0.571508 -0.415363 0
-0.629437 -0.320873 0
-0.523029 -0.367115 0
-0.558315 -0.249884 0
-0.629437 -0.320873 0
-0.671875 -0.218414 0
-0.571508 -0.415363 0
-0.629437 -0.320873 0
-0.65402 -0.345278 0
-0.720296 -0.266732 0
-0.629437 -0.320873 0
-0.671875 -0.218414 0
-0.720296 -0.266732 0
-0.768842 -0.181566 0
-0.475228 -0.47525 0
-0.571655 -0.415405 0
-0.523614 -0.367079 0
-0.629882 -0.320869 0
-0.571655 -0.415405 0
-0.65402 -0.345278 0
-0.629882 -0.320869 0
-0.720616 -0.266705 0
-0.523614 -0.367079 0
-0.629882 -0.320869 0
-0.558947 -0.249843 0
-0.672418 -0.218409 0
-0.629882 -0.320869 0
-0.720616 -0.266705 0
-0.672418 -0.218409 0
-0.769313 -0.181551 0
-0.65402 -0.345278 0
-0.720296 -0.266732 0
-0.720616 -0.266705 0
-0.7936 -0.206032 0
-0.720296 -0.266732 0
-0.768842 -0.181566 0
-0.7936 -0.206032 0
-0.847047 -0.14025 0
-0.720616 -0.266705 0
-0.7936 -0.206032 0
-0.769313 -0.181551 0
-0.847246 -0.140252 0
-0.7936 -0.206032 0
-0.847047 -0.14025 0
-0.847246 -0.140252 0
-0.904304 -0.0954784 0
-0.558947 -0.249843 0
-0.672418 -0.218409 0
-0.580632 -0.126463 0
-0.6985 -0.110561 0
-0.672418 -0.218409 0
-0.769313 -0.181551 0
-0.6985 -0.110561 0
-0.799138 -0.0919153 0
-0.580632 -0.126463 0
-0.6985 -0.110561 0
-0.587785 -9.9076e-17 0
-0.707107 -8.65956e-17 0
-0.6985 -0.110561 0
-0.799138 -0.0919153 0
-0.707107 -8.65956e-17 0
-0.809017 -7.19829e-17 0
-0.769313 -0.181551 0
-0.847246 -0.140252 0
-0.799138 -0.0919153 0
-0.880064 -0.0710134 0
-0.847246 -0.140252 0
-0.904304 -0.0954784 0
-0.880064 -0.0710134 0
-0.939294 -0.0483501 0
-0.799138 -0.0919153 0
-0.880064 -0.0710134 0
-0.809017 -7.19829e-17 0
-0.891007 -5.55978e-17 0
-0.880064 -0.0710134 0
-0.939294 -0.0483501 0
-0.891007 -5.55978e-17 0
-0.951057 -3.78437e-17 0
0.951057 0 0
0.987688 0 0
0.939097 -0.0482842 0
0.975378 -0.0244048 0
0.987688 0 0
1 0 0
0.975378 -0.0244048 0
0.987652 6.7755e-05 0
0.939097 -0.0482842 0
0.975378 -0.0244048 0
0.904366 -0.0953787 0
0.939271 -0.0482178 0
0.975378 -0.0244048 0
0.987652 6.7755e-05 0
0.939271 -0.0482178 0
0.951063 0.00011072 0
1 0 0
0.987688 0 0
0.987652 6.7755e-05 0
0.975609 0.0245416 0
0.987688 0 0
0.951057 0 0
0.975609 0.0245416 0
0.939539 0.0483984 0
0.987652 6.7755e-05 0
0.975609 0.0245416 0
0.951063 0.00011072 0
0.939443 0.0484486 0
0.975609 0.0245416 0
0.939539 0.0483984 0
0.939443 0.0484486 0
0.904692 0.095564 0
0.904366 -0.0953787 0
0.939271 -0.0482178 0
0.847364 -0.140119 0
0.880058 -0.070847 0
0.939271 -0.0482178 0
0.951063 0.00011072 0
0.880058 -0.070847 0
0.891095 0.000142615 0
0.847364 -0.140119 0
0.880058 -0.070847 0
0.769292 -0.181413 0
0.798963 -0.0917384 0
0.880058 -0.070847 0
0.891095 0.000142615 0
0.798963 -0.0917384 0
0.80897 0.00016616 0
0.951063 0.00011072 0
0.939443 0.0484486 0
0.891095 0.000142615 0
0.880196 0.0711501 0
0.939443 0.0484486 0
0.904692 0.095564 0
0.880196 0.0711501 0
0.847627 0.140359 0
0.891095 0.000142615 0
0.880196 0.0711501 0
0.80897 0.00016616 0
0.799061 0.0920931 0
0.880196 0.0711501 0
0.847627 0.140359 0
0.799061 0.0920931 0
0.769474 0.181692 0
0.769292 -0.181413 0
0.798963 -0.0917384 0
0.672552 -0.218249 0
0.698481 -0.110382 0
0.798963 -0.0917384 0
0.80897 0.00016616 0
0.698481 -0.110382 0
0.707215 0.000175259 0
0.672552 -0.218249 0
0.698481 -0.110382 0
0.559044 -0.249723 0
0.580588 -0.126321 0
0.698481 -0.110382 0
0.707215 0.000175259 0
0.580588 -0.126321 0
0.587836 0.000171865 0
0.80897 0.00016616 0
0.799061 0.0920931 0
0.707215 0.000175259 0
0.698532 0.110758 0
0.799061 0.0920931 0
0.769474 0.181692 0
0.698532 0.110758 0
0.672651 0.218544 0
0.707215 0.000175259 0
0.698532 0.110758 0
0.587836 0.000171865 0
0.580608 0.126686 0
0.698532 0.110758 0
0.672651 0.218544 0
0.580608 0.126686 0
0.559078 0.250012 0
0.559044 -0.249723 0
0.580588 -0.126321 0
0.431989 -0.275051 0
0.448606 -0.139152 0
0.580588 -0.126321 0
0.587836 0.000171865 0
0.448606 -0.139152 0
0.454179 0.000151892 0
0.431989 -0.275051 0
0.448606 -0.139152 0
0.294119 -0.293602 0
0.305409 -0.148555 0
0.448606 -0.139152 0
0.454179 0.000151892 0
0.305409 -0.148555 0
0.309184 0.000120025 0
0.587836 0.000171865 0
0.580608 0.126686 0
0.454179 0.000151892 0
0.448577 0.139478 0
0.580608 0.126686 0
0.559078 0.250012 0
0.448577 0.139478 0
0.43194 0.275308 0
0.454179 0.000151892 0
0.448577 0.139478 0
0.309184 0.000120025 0
0.305365 0.148816 0
0.448577 0.139478 0
0.43194 0.275308 0
0.305365 0.148816 0
0.294028 0.293809 0
0.294119 -0.293602 0
0.305409 -0.148555 0
0.14918 -0.304919 0
0.154862 -0.154294 0
0.305409 -0.148555 0
0.309184 0.000120025 0
0.154862 -0.154294 0
0.156735 8.22759e-05 0
0.14918 -0.304919 0
0.154862 -0.154294 0
0.000476301 -0.308737 0
0.000457059 -0.156246 0
0.154862 -0.154294 0
0.156735 8.22759e-05 0
0.000457059 -0.156246 0
0.000422847 4.37673e-05 0
0.309184 0.000120025 0
0.305365 0.148816 0
0.156735 8.22759e-05 0
0.154781 0.154468 0
0.305365 0.148816 0
0.294028 0.293809 0
0.154781 0.154468 0
0.14903 0.305067 0
0.156735 8.22759e-05 0
0.154781 0.154468 0
0.000422847 4.37673e-05 0
0.000374957 0.156325 0
0.154781 0.154468 0
0.14903 0.305067 0
0.000374957 0.156325 0
0.000315713 0.308817 0
0.000476301 -0.308737 0
0.000457059 -0.156246 0
-0.148151 -0.304971 0
-0.153882 -0.154378 0
0.000457059 -0.156246 0
0.000422847 4.37673e-05 0
-0.153882 -0.154378 0
-0.155836 -2.638e-07 0
-0.148151 -0.304971 0
-0.153882 -0.154378 0
-0.293219 -0.293702 0
-0.304537 -0.148711 0
-0.153882 -0.154378 0
-0.155836 -2.638e-07 0
-0.304537 -0.148711 0
-0.30837 -4.0253e-05 0
0.000422847 4.37673e-05 0
0.000374957 0.156325 0
-0.155836 -2.638e-07 0
-0.153984 0.15437 0
0.000374957 0.156325 0
0.000315713 0.308817 0
-0.153984 0.15437 0
-0.148348 0.304982 0
-0.155836 -2.638e-07 0
-0.153984 0.15437 0
-0.30837 -4.0253e-05 0
-0.30463 0.148627 0
-0.153984 0.15437 0
-0.148348 0.304982 0
-0.30463 0.148627 0
-0.293392 0.293646 0
-0.293219 -0.293702 0
-0.304537 -0.148711 0
-0.431077 -0.275192 0
-0.447713 -0.139365 0
-0.304537 -0.148711 0
-0.30837 -4.0253e-05 0
-0.447713 -0.139365 0
-0.453336 -7.09014e-05 0
-0.431077 -0.275192 0
-0.447713 -0.139365 0
-0.558315 -0.249884 0
-0.579854 -0.126569 0
-0.447713 -0.139365 0
-0.453336 -7.09014e-05 0
-0.579854 -0.126569 0
-0.587115 -9.01155e-05 0
-0.30837 -4.0253e-05 0
-0.30463 0.148627 0
-0.453336 -7.09014e-05 0
-0.447805 0.139218 0
-0.30463 0.148627 0
-0.293392 0.293646 0
-0.447805 0.139218 0
-0.431251 0.275082 0
-0.453336 -7.09014e-05 0
-0.447805 0.139218 0
-0.587115 -9.01155e-05 0
-0.579915 0.126381 0
-0.447805 0.139218 0
-0.431251 0.275082 0
-0.579915 0.126381 0
-0.558432 0.249745 0
-0.558315 -0.249884 0
-0.579854 -0.126569 0
-0.671875 -0.218414 0
-0.697773 -0.110641 0
-0.579854 -0.126569 0
-0.587115 -9.01155e-05 0
-0.697773 -0.110641 0
-0.706494 -9.71473e-05 0
-0.671875 -0.218414 0
-0.697773 -0.110641 0
-0.768842 -0.181566 0
-0.798454 -0.0919824 0
-0.697773 -0.110641 0
-0.706494 -9.71473e-05 0
-0.798454 -0.0919824 0
-0.808406 -9.44096e-05 0
-0.587115 -9.01155e-05 0
-0.579915 0.126381 0
-0.706494 -9.71473e-05 0
-0.697816 0.110436 0
-0.579915 0.126381 0
-0.558432 0.249745 0
-0.697816 0.110436 0
-0.671954 0.218261 0
-0.706494 -9.71473e-05 0
-0.697816 0.110436 0
-0.808406 -9.44096e-05 0
-0.79845 0.0917839 0
-0.697816 0.110436 0
-0.671954 0.218261 0
-0.79845 0.0917839 0
-0.768837 0.181417 0
-0.768842 -0.181566 0
-0.798454 -0.0919824 0
-0.847047 -0.14025 0
-0.879641 -0.0710552 0
-0.798454 -0.0919824 0
-0.808406 -9.44096e-05 0
-0.879641 -0.0710552 0
-0.890581 -8.25266e-05 0
-0.847047 -0.14025 0
-0.879641 -0.0710552 0
-0.904304 -0.0954784 0
-0.939087 -0.0483766 0
-0.879641 -0.0710552 0
-0.890581 -8.25266e-05 0
-0.939087 -0.0483766 0
-0.950745 -6.63362e-05 0
-0.808406 -9.44096e-05 0
-0.79845 0.0917839 0
-0.890581 -8.25266e-05 0
-0.879597 0.0708821 0
-0.79845 0.0917839 0
-0.768837 0.181417 0
-0.879597 0.0708821 0
-0.846963 0.140117 0
-0.890581 -8.25266e-05 0
-0.879597 0.0708821 0
-0.950745 -6.63362e-05 0
-0.938993 0.0482408 0
-0.879597 0.0708821 0
-0.846963 0.140117 0
-0.938993 0.0482408 0
-0.904128 0.0953721 0
-0.904304 -0.0954784 0
-0.939087 -0.0483766 0
-0.939294 -0.0483501 0
-0.975379 -0.024503 0
-0.939087 -0.0483766 0
-0.950745 -6.63362e-05 0
-0.975379 -0.024503 0
-0.987444 -4.46128e-05 0
-0.939294 -0.0483501 0
-0.975379 -0.024503 0
-0.951057 -3.78437e-17 0
-0.987688 -1.91577e-17 0
-0.975379 -0.024503 0
-0.987444 -4.46128e-05 0
-0.987688 -1.91577e-17 0
-1 -3.46914e-32 0