# vtk DataFile Version 3.0
#This file was generated by the deal.II library on 2026/6/8 at 18:00:27
ASCII
DATASET UNSTRUCTURED_GRID

POINTS 400 double
0 0 0
0.1 0 0
0 0.1 0
0.1 0.1 0
0.1 0 0
0.2 0 0
0.1 0.1 0
0.2 0.1 0
0 0.1 0
0.1 0.1 0
0 0.2 0
0.1 0.2 0
0.1 0.1 0
0.2 0.1 0
0.1 0.2 0
0.2 0.2 0
0 0.2 0
0.1 0.2 0
0 0.3 0
0.1 0.3 0
0.1 0.2 0
0.2 0.2 0
0.1 0.3 0
0.2 0.3 0
0 0.3 0
0.1 0.3 0
0 0.4 0
0.1 0.4 0
0.1 0.3 0
0.2 0.3 0
0.1 0.4 0
0.2 0.4 0
0 0.4 0
0.1 0.4 0
0 0.5 0
0.1 0.5 0
0.1 0.4 0
0.2 0.4 0
0.1 0.5 0
0.2 0.5 0
0 0.5 0
0.1 0.5 0
0 0.6 0
0.1 0.6 0
0.1 0.5 0
0.2 0.5 0
0.1 0.6 0
0.2 0.6 0
0 0.6 0
0.1 0.6 0
0 0.7 0
0.1 0.7 0
0.1 0.6 0
0.2 0.6 0
0.1 0.7 0
0.2 0.7 0
0 0.7 0
0.1 0.7 0
0 0.8 0
0.1 0.8 0
0.1 0.7 0
0.2 0.7 0
0.1 0.8 0
0.2 0.8 0
0 0.8 0
0.1 0.8 0
0 0.9 0
0.1 0.9 0
0.1 0.8 0
0.2 0.8 0
0.1 0.9 0
0.2 0.9 0
0 0.9 0
0.1 0.9 0
0 1 0
0.1 1 0
0.1 0.9 0
0.2 0.9 0
0.1 1 0
0.2 1 0
0.2 0 0
0.3 0 0
0.2 0.1 0
0.3 0.1 0
0.3 0 0
0.4 0 0
0.3 0.1 0
0.4 0.1 0
0.2 0.1 0
0.3 0.1 0
0.2 0.2 0
0.3 0.2 0
0.3 0.1 0
0.4 0.1 0
0.3 0.2 0
0.4 0.2 0
0.2 0.2 0
0.3 0.2 0
0.2 0.3 0
0.3 0.3 0
0.3 0.2 0
0.4 0.2 0
0.3 0.3 0
0.4 0.3 0
0.2 0.3 0
0.3 0.3 0
0.2 0.4 0
0.3 0.4 0
0.3 0.3 0
0.4 0.3 0
0.3 0.4 0
0.4 0.4 0
0.2 0.4 0
0.3 0.4 0
0.2 0.5 0
0.3 0.5 0
0.3 0.4 0
0.4 0.4 0
0.3 0.5 0
0.4 0.5 0
0.2 0.5 0
0.3 0.5 0
0.2 0.6 0
0.3 0.6 0
0.3 0.5 0
0.4 0.5 0
0.3 0.6 0
0.4 0.6 0
0.2 0.6 0
0.3 0.6 0
0.2 0.7 0
0.3 0.7 0
0.3 0.6 0
0.4 0.6 0
0.3 0.7 0
0.4 0.7 0
0.2 0.7 0
0.3 0.7 0
0.2 0.8 0
0.3 0.8 0
0.3 0.7 0
0.4 0.7 0
0.3 0.8 0
0.4 0.8 0
0.2 0.8 0
0.3 0.8 0
0.2 0.9 0
0.3 0.9 0
0.3 0.8 0
0.4 0.8 0
0.3 0.9 0
0.4 0.9 0
0.2 0.9 0
0.3 0.9 0
0.2 1 0
0.3 1 0
0.3 0.9 0
0.4 0.9 0
0.3 1 0
0.4 1 0
0.4 0 0
0.5 0 0
0.4 0.1 0
0.5 0.1 0
0.5 0 0
0.6 0 0
0.5 0.1 0
0.6 0.1 0
0.4 0.1 0
0.5 0.1 0
0.4 0.2 0
0.5 0.2 0
0.5 0.1 0
0.6 0.1 0
0.5 0.2 0
0.6 0.2 0
0.4 0.2 0
0.5 0.2 0
0.4 0.3 0
0.5 0.3 0
0.5 0.2 0
0.6 0.2 0
0.5 0.3 0
0.6 0.3 0
0.4 0.3 0
0.5 0.3 0
0.4 0.4 0
0.5 0.4 0
0.5 0.3 0
0.6 0.3 0
0.5 0.4 0
0.6 0.4 0
0.4 0.4 0
0.5 0.4 0
0.4 0.5 0
0.5 0.5 0
0.5 0.4 0
0.6 0.4 0
0.5 0.5 0
0.6 0.5 0
0.4 0.5 0
0.5 0.5 0
0.4 0.6 0
0.5 0.6 0
0.5 0.5 0
0.6 0.5 0
0.5 0.6 0
0.6 0.6 0
0.4 0.6 0
0.5 0.6 0
0.4 0.7 0
0.5 0.7 0
0.5 0.6 0
0.6 0.6 0
0.5 0.7 0
0.6 0.7 0
0.4 0.7 0
0.5 0.7 0
0.4 0.8 0
0.5 0.8 0
0.5 0.7 0
0.6 0.7 0
0.5 0.8 0
0.6 0.8 0
0.4 0.8 0
0.5 0.8 0
0.4 0.9 0
0.5 0.9 0
0.5 0.8 0
0.6 0.8 0
0.5 0.9 0
0.6 0.9 0
0.4 0.9 0
0.5 0.9 0
0.4 1 0
0.5 1 0
0.5 0.9 0
0.6 0.9 0
0.5 1 0
0.6 1 0
0.6 0 0
0.7 0 0
0.6 0.1 0
0.7 0.1 0
0.7 0 0
0.8 0 0
0.7 0.1 0
0.8 0.1 0
0.6 0.1 0
0.7 0.1 0
0.6 0.2 0
0.7 0.2 0
0.7 0.1 0
0.8 0.1 0
0.7 0.2 0
0.8 0.2 0
0.6 0.2 0
0.7 0.2 0
0.6 0.3 0
0.7 0.3 0
0.7 0.2 0
0.8 0.2 0
0.7 0.3 0
0.8 0.3 0
0.6 0.3 0
0.7 0.3 0
0.6 0.4 0
0.7 0.4 0
0.7 0.3 0
0.8 0.3 0
0.7 0.4 0
0.8 0.4 0
0.6 0.4 0
0.7 0.4 0
0.6 0.5 0
0.7 0.5 0
0.7 0.4 0
0.8 0.4 0
0.7 0.5 0
0.8 0.5 0
0.6 0.5 0
0.7 0.5 0
0.6 0.6 0
0.7 0.6 0
0.7 0.5 0
0.8 0.5 0
0.7 0.6 0
0.8 0.6 0
0.6 0.6 0
0.7 0.6 0
0.6 0.7 0
0.7 0.7 0
0.7 0.6 0
0.8 0.6 0
0.7 0.7 0
0.8 0.7 0
0.6 0.7 0
0.7 0.7 0
0.6 0.8 0
0.7 0.8 0
0.7 0.7 0
0.8 0.7 0
0.7 0.8 0
0.8 0.8 0
0.6 0.8 0
0.7 0.8 0
0.6 0.9 0
0.7 0.9 0
0.7 0.8 0
0.8 0.8 0
0.7 0.9 0
0.8 0.9 0
0.6 0.9 0
0.7 0.9 0
0.6 1 0
0.7 1 0
0.7 0.9 0
0.8 0.9 0
0.7 1 0
0.8 1 0
0.8 0 0
0.9 0 0
0.8 0.1 0
0.9 0.1 0
0.9 0 0
1 0 0
0.9 0.1 0
1 0.1 0
0.8 0.1 0
0.9 0.1 0
0.8 0.2 0
0.9 0.2 0
0.9 0.1 0
1 0.1 0
0.9 0.2 0
1 0.2 0
0.8 0.2 0
0.9 0.2 0
0.8 0.3 0
0.9 0.3 0
0.9 0.2 0
1 0.2 0
0.9 0.3 0
1 0.3 0
0.8 0.3 0
0.9 0.3 0
0.8 0.4 0
0.9 0.4 0
0.9 0.3 0
1 0.3 0
0.9 0.4 0
1 0.4 0
0.8 0.4 0
0.9 0.4 0
0.8 0.5 0
0.9 0.5 0
0.9 0.4 0
1 0.4 0
0.9 0.5 0
1 0.5 0
0.8 0.5 0
0.9 0.5 0
0.8 0.6 0
0.9 0.6 0
0.9 0.5 0
1 0.5 0
0.9 0.6 0
1 0.6 0
0.8 0.6 0
0.9 0.6 0
0.8 0.7 0
0.9 0.7 0
0.9 0.6 0
1 0.6 0
0.9 0.7 0
1 0.7 0
0.8 0.7 0
0.9 0.7 0
0.8 0.8 0
0.9 0.8 0
0.9 0.7 0
1 0.7 0
0.9 0.8 0
1 0.8 0
0.8 0.8 0
0.9 0.8 0
0.8 0.9 0
0.9 0.9 0
0.9 0.8 0
1 0.8 0
0.9 0.9 0
1 0.9 0
0.8 0.9 0
0.9 0.9 0
0.8 1 0
0.9 1 0
0.9 0.9 0
1 0.9 0
0.9 1 0
1 1 0

CELLS 100 500
4	0	1	3	2
4	4	5	7	6
4	8	9	11	10
4	12	13	15	14
4	16	17	19	18
4	20	21	23	22
4	24	25	27	26
4	28	29	31	30
4	32	33	35	34
4	36	37	39	38
4	40	41	43	42
4	44	45	47	46
4	48	49	51	50
4	52	53	55	54
4	56	57	59	58
4	60	61	63	62
4	64	65	67	66
4	68	69	71	70
4	72	73	75	74
4	76	77	79	78
4	80	81	83	82
4	84	85	87	86
4	88	89	91	90
4	92	93	95	94
4	96	97	99	98
4	100	101	103	102
4	104	105	107	106
4	108	109	111	110
4	112	113	115	114
4	116	117	119	118
4	120	121	123	122
4	124	125	127	126
4	128	129	131	130
4	132	133	135	134
4	136	137	139	138
4	140	141	143	142
4	144	145	147	146
4	148	149	151	150
4	152	153	155	154
4	156	157	159	158
4	160	161	163	162
4	164	165	167	166
4	168	169	171	170
4	172	173	175	174
4	176	177	179	178
4	180	181	183	182
4	184	185	187	186
4	188	189	191	190
4	192	193	195	194
4	196	197	199	198
4	200	201	203	202
4	204	205	207	206
4	208	209	211	210
4	212	213	215	214
4	216	217	219	218
4	220	221	223	222
4	224	225	227	226
4	228	229	231	230
4	232	233	235	234
4	236	237	239	238
4	240	241	243	242
4	244	245	247	246
4	248	249	251	250
4	252	253	255	254
4	256	257	259	258
4	260	261	263	262
4	264	265	267	266
4	268	269	271	270
4	272	273	275	274
4	276	277	279	278
4	280	281	283	282
4	284	285	287	286
4	288	289	291	290
4	292	293	295	294
4	296	297	299	298
4	300	301	303	302
4	304	305	307	306
4	308	309	311	310
4	312	313	315	314
4	316	317	319	318
4	320	321	323	322
4	324	325	327	326
4	328	329	331	330
4	332	333	335	334
4	336	337	339	338
4	340	341	343	342
4	344	345	347	346
4	348	349	351	350
4	352	353	355	354
4	356	357	359	358
4	360	361	363	362
4	364	365	367	366
4	368	369	371	370
4	372	373	375	374
4	376	377	379	378
4	380	381	383	382
4	384	385	387	386
4	388	389	391	390
4	392	393	395	394
4	396	397	399	398

CELL_TYPES 100
 9 9 9 9 9 9 9 9 9 9 9 9 9 9 9 9 9 9 9 9 9 9 9 9 9 9 9 9 9 9 9 9 9 9 9 9 9 9 9 9 9 9 9 9 9 9 9 9 9 9 9 9 9 9 9 9 9 9 9 9 9 9 9 9 9 9 9 9 9 9 9 9 9 9 9 9 9 9 9 9 9 9 9 9 9 9 9 9 9 9 9 9 9 9 9 9 9 9 9 9
POINT_DATA 400
VECTORS velocity double
0 0 0
0.309017 0 0
0 -0.309017 0
0.292333 -0.294436 0
0.309017 0 0
0.587785 0 0
0.292333 -0.294436 0
0.556259 -0.249308 0
0 -0.309017 0
0.292333 -0.294436 0
0 -0.587785 0
0.248986 -0.559063 0
0.292333 -0.294436 0
0.556259 -0.249308 0
0.248986 -0.559063 0
0.472329 -0.472619 0
0 -0.587785 0
0.248986 -0.559063 0
0 -0.809017 0
0.180917 -0.767316 0
0.248986 -0.559063 0
0.472329 -0.472619 0
0.180917 -0.767316 0
0.342793 -0.649112 0
0 -0.809017 0
0.180917 -0.767316 0
0 -0.951057 0
0.0955841 -0.899689 0
0.180917 -0.767316 0
0.342793 -0.649112 0
0.0955841 -0.899689 0
0.181139 -0.762591 0
0 -0.951057 0
0.0955841 -0.899689 0
0 -1 0
0.00117527 -0.944526 0
0.0955841 -0.899689 0
0.181139 -0.762591 0
0.00117527 -0.944526 0
0.00198957 -0.801463 0
0 -1 0
0.00117527 -0.944526 0
0 -0.951057 0
-0.0933827 -0.897891 0
0.00117527 -0.944526 0
0.00198957 -0.801463 0
-0.0933827 -0.897891 0
-0.177487 -0.761764 0
0 -0.951057 0
-0.0933827 -0.897891 0
0 -0.809017 0
-0.179177 -0.764175 0
-0.0933827 -0.897891 0
-0.177487 -0.761764 0
-0.179177 -0.764175 0
-0.340101 -0.647835 0
0 -0.809017 0
-0.179177 -0.764175 0
0 -0.587785 0
-0.248294 -0.555722 0
-0.179177 -0.764175 0
-0.340101 -0.647835 0
-0.248294 -0.555722 0
-0.470921 -0.471279 0
0 -0.587785 0
-0.248294 -0.555722 0
0 -0.309017 0
-0.29366 -0.292181 0
-0.248294 -0.555722 0
-0.470921 -0.471279 0
-0.29366 -0.292181 0
-0.557639 -0.248398 0
0 -0.309017 0
-0.29366 -0.292181 0
0 -1.22465e-16 0
-0.309017 -1.16471e-16 0
-0.29366 -0.292181 0
-0.557639 -0.248398 0
-0.309017 -1.16471e-16 0
-0.587785 -9.9076e-17 0
0.587785 0 0
0.809017 0 0
0.556259 -0.249308 0
0.765022 -0.180089 0
0.809017 0 0
0.951057 0 0
0.765022 -0.180089 0
0.898877 -0.0941147 0
0.556259 -0.249308 0
0.765022 -0.180089 0
0.472329 -0.472619 0
0.649079 -0.341638 0
0.765022 -0.180089 0
0.898877 -0.0941147 0
0.649079 -0.341638 0
0.763154 -0.178789 0
0.472329 -0.472619 0
0.649079 -0.341638 0
0.342793 -0.649112 0
0.471976 -0.470379 0
0.649079 -0.341638 0
0.763154 -0.178789 0
0.471976 -0.470379 0
0.555467 -0.246677 0
0.342793 -0.649112 0
0.471976 -0.470379 0
0.181139 -0.762591 0
0.24952 -0.553539 0
0.471976 -0.470379 0
0.555467 -0.246677 0
0.24952 -0.553539 0
0.293489 -0.290716 0
0.181139 -0.762591 0
0.24952 -0.553539 0
0.00198957 -0.801463 0
0.00244221 -0.582288 0
0.24952 -0.553539 0
0.293489 -0.290716 0
0.00244221 -0.582288 0
0.00251026 -0.306176 0
0.00198957 -0.801463 0
0.00244221 -0.582288 0
-0.177487 -0.761764 0
-0.244966 -0.553585 0
0.00244221 -0.582288 0
0.00251026 -0.306176 0
-0.244966 -0.553585 0
-0.288814 -0.291343 0
-0.177487 -0.761764 0
-0.244966 -0.553585 0
-0.340101 -0.647835 0
-0.46852 -0.470416 0
-0.244966 -0.553585 0
-0.288814 -0.291343 0
-0.46852 -0.470416 0
-0.551623 -0.247694 0
-0.340101 -0.647835 0
-0.46852 -0.470416 0
-0.470921 -0.471279 0
-0.647261 -0.341597 0
-0.46852 -0.470416 0
-0.551623 -0.247694 0
-0.647261 -0.341597 0
-0.760887 -0.179791 0
-0.470921 -0.471279 0
-0.647261 -0.341597 0
-0.557639 -0.248398 0
-0.765715 -0.180167 0
-0.647261 -0.341597 0
-0.760887 -0.179791 0
-0.765715 -0.180167 0
-0.898388 -0.0947817 0
-0.557639 -0.248398 0
-0.765715 -0.180167 0
-0.587785 -9.9076e-17 0
-0.809017 -7.19829e-17 0
-0.765715 -0.180167 0
-0.898388 -0.0947817 0
-0.809017 -7.19829e-17 0
-0.951057 -3.78437e-17 0
0.951057 0 0
1 0 0
0.898877 -0.0941147 0
0.945494 0.000617423 0
1 0 0
0.951057 0 0
0.945494 0.000617423 0
0.900504 0.0951926 0
0.898877 -0.0941147 0
0.945494 0.000617423 0
0.763154 -0.178789 0
0.802962 0.000964076 0
0.945494 0.000617423 0
0.900504 0.0951926 0
0.802962 0.000964076 0
0.764105 0.180398 0
0.763154 -0.178789 0
0.802962 0.000964076 0
0.555467 -0.246677 0
0.584342 0.000974151 0
0.802962 0.000964076 0
0.764105 0.180398 0
0.584342 0.000974151 0
0.555552 0.248343 0
0.555467 -0.246677 0
0.584342 0.000974151 0
0.293489 -0.290716 0
0.308468 0.000711697 0
0.584342 0.000974151 0
0.555552 0.248343 0
0.308468 0.000711697 0
0.292952 0.291921 0
0.293489 -0.290716 0
0.308468 0.000711697 0
0.00251026 -0.306176 0
0.00216801 0.000250013 0
0.308468 0.000711697 0
0.292952 0.291921 0
0.00216801 0.000250013 0
0.00157681 0.306622 0
0.00251026 -0.306176 0
0.00216801 0.000250013 0
-0.288814 -0.291343 0
-0.30433 -0.00022189 0
0.00216801 0.000250013 0
0.00157681 0.306622 0
-0.30433 -0.00022189 0
-0.289775 0.29105 0
-0.288814 -0.291343 0
-0.30433 -0.00022189 0
-0.551623 -0.247694 0
-0.580599 -0.000498659 0
-0.30433 -0.00022189 0
-0.289775 0.29105 0
-0.580599 -0.000498659 0
-0.552288 0.246901 0
-0.551623 -0.247694 0
-0.580599 -0.000498659 0
-0.760887 -0.179791 0
-0.800117 -0.000559172 0
-0.580599 -0.000498659 0
-0.552288 0.246901 0
-0.800117 -0.000559172 0
-0.760881 0.178902 0
-0.760887 -0.179791 0
-0.800117 -0.000559172 0
-0.898388 -0.0947817 0
-0.943728 -0.000368243 0
-0.800117 -0.000559172 0
-0.760881 0.178902 0
-0.943728 -0.000368243 0
-0.89758 0.0941384 0
-0.898388 -0.0947817 0
-0.943728 -0.000368243 0
-0.951057 -3.78437e-17 0
-1 -3.46914e-32 0
-0.943728 -0.000368243 0
-0.89758 0.0941384 0
-1 -3.46914e-32 0
-0.951057 3.78437e-17 0
0.951057 0 0
0.809017 0 0
0.900504 0.0951926 0
0.767876 0.180694 0
0.809017 0 0
0.587785 0 0
0.767876 0.180694 0
0.559373 0.248942 0
0.900504 0.0951926 0
0.767876 0.180694 0
0.764105 0.180398 0
0.650473 0.342357 0
0.767876 0.180694 0
0.559373 0.248942 0
0.650473 0.342357 0
0.473566 0.472142 0
0.764105 0.180398 0
0.650473 0.342357 0
0.555552 0.248343 0
0.472118 0.471124 0
0.650473 0.342357 0
0.473566 0.472142 0
0.472118 0.471124 0
0.34291 0.648628 0
0.555552 0.248343 0
0.472118 0.471124 0
0.292952 0.291921 0
0.248612 0.554169 0
0.472118 0.471124 0
0.34291 0.648628 0
0.248612 0.554169 0
0.180204 0.762272 0
0.292952 0.291921 0
0.248612 0.554169 0
0.00157681 0.306622 0
0.00096943 0.582652 0
0.248612 0.554169 0
0.180204 0.762272 0
0.00096943 0.582652 0
0.000466338 0.801616 0
0.00157681 0.306622 0
0.00096943 0.582652 0
-0.289775 0.29105 0
-0.246517 0.553636 0
0.00096943 0.582652 0
0.000466338 0.801616 0
-0.246517 0.553636 0
-0.17905 0.762401 0
-0.289775 0.29105 0
-0.246517 0.553636 0
-0.552288 0.246901 0
-0.469564 0.470259 0
-0.246517 0.553636 0
-0.17905 0.762401 0
-0.469564 0.470259 0
-0.341161 0.648622 0
-0.552288 0.246901 0
-0.469564 0.470259 0
-0.760881 0.178902 0
-0.647383 0.341374 0
-0.469564 0.470259 0
-0.341161 0.648622 0
-0.647383 0.341374 0
-0.471092 0.471868 0
-0.760881 0.178902 0
-0.647383 0.341374 0
-0.89758 0.0941384 0
-0.764236 0.179823 0
-0.647383 0.341374 0
-0.471092 0.471868 0
-0.764236 0.179823 0
-0.556021 0.248727 0
-0.89758 0.0941384 0
-0.764236 0.179823 0
-0.951057 3.78437e-17 0
-0.809017 7.19829e-17 0
-0.764236 0.179823 0
-0.556021 0.248727 0
-0.809017 7.19829e-17 0
-0.587785 9.9076e-17 0
0.587785 0 0
0.309017 0 0
0.559373 0.248942 0
0.294543 0.29267 0
0.309017 0 0
1.22465e-16 0 0
0.294543 0.29267 0
1.16471e-16 0.309017 0
0.559373 0.248942 0
0.294543 0.29267 0
0.473566 0.472142 0
0.249742 0.556558 0
0.294543 0.29267 0
1.16471e-16 0.309017 0
0.249742 0.556558 0
9.9076e-17 0.587785 0
0.473566 0.472142 0
0.249742 0.556558 0
0.34291 0.648628 0
0.180735 0.765083 0
0.249742 0.556558 0
9.9076e-17 0.587785 0
0.180735 0.765083 0
7.19829e-17 0.809017 0
0.34291 0.648628 0
0.180735 0.765083 0
0.180204 0.762272 0
0.0948704 0.898565 0
0.180735 0.765083 0
7.19829e-17 0.809017 0
0.0948704 0.898565 0
3.78437e-17 0.951057 0
0.180204 0.762272 0
0.0948704 0.898565 0
0.000466338 0.801616 0
0.000189628 0.944696 0
0.0948704 0.898565 0
3.78437e-17 0.951057 0
0.000189628 0.944696 0
7.4988e-33 1 0
0.000466338 0.801616 0
0.000189628 0.944696 0
-0.17905 0.762401 0
-0.0943903 0.899204 0
0.000189628 0.944696 0
7.4988e-33 1 0
-0.0943903 0.899204 0
-3.78437e-17 0.951057 0
-0.17905 0.762401 0
-0.0943903 0.899204 0
-0.341161 0.648622 0
-0.179945 0.766275 0
-0.0943903 0.899204 0
-3.78437e-17 0.951057 0
-0.179945 0.766275 0
-7.19829e-17 0.809017 0
-0.341161 0.648622 0
-0.179945 0.766275 0
-0.471092 0.471868 0
-0.248354 0.557948 0
-0.179945 0.766275 0
-7.19829e-17 0.809017 0
-0.248354 0.557948 0
-9.9076e-17 0.587785 0
-0.471092 0.471868 0
-0.248354 0.557948 0
-0.556021 0.248727 0
-0.292518 0.293767 0
-0.248354 0.557948 0
-9.9076e-17 0.587785 0
-0.292518 0.293767 0
-1.16471e-16 0.309017 0
-0.556021 0.248727 0
-0.292518 0.293767 0
-0.587785 9.9076e-17 0
-0.309017 1.16471e-16 0
-0.292518 0.293767 0
-1.16471e-16 0.309017 0
-0.309017 1.16471e-16 0
-1.22465e-16 1.22465e-16 0
VECTORS velocity_error double
0 0 0
0 0 0
0 0 0
0.00155985 0.0005433 0
0 0 0
0 0 0
0.00155985 0.0005433 0
0.00275812 -0.000691624 0
0 0 0
0.00155985 0.0005433 0
0 0 0
0.00101389 4.63255e-05 0
0.00155985 0.0005433 0
0.00275812 -0.000691624 0
0.00101389 4.63255e-05 0
0.00319905 -0.00290924 0
0 0 0
0.00101389 4.63255e-05 0
0 0 0
0.000719097 -0.00210495 0
0.00101389 4.63255e-05 0
0.00319905 -0.00290924 0
0.000719097 -0.00210495 0
0.00269816 -0.00539644 0
0 0 0
0.000719097 -0.00210495 0
0 0 0
-9.25816e-05 -0.00481949 0
0.000719097 -0.00210495 0
0.00269816 -0.00539644 0
-9.25816e-05 -0.00481949 0
0.000497104 -0.00683034 0
0 0 0
-9.25816e-05 -0.00481949 0
0 0 0
-0.00117527 -0.00653042 0
-9.25816e-05 -0.00481949 0
0.000497104 -0.00683034 0
-0.00117527 -0.00653042 0
-0.00198957 -0.00755425 0
0 0 0
-0.00117527 -0.00653042 0
0 0 0
-0.00210882 -0.00661711 0
-0.00117527 -0.00653042 0
-0.00198957 -0.00755425 0
-0.00210882 -0.00661711 0
-0.00414851 -0.00765731 0
0 0 0
-0.00210882 -0.00661711 0
0 0 0
-0.0024588 -0.00524543 0
-0.00210882 -0.00661711 0
-0.00414851 -0.00765731 0
-0.0024588 -0.00524543 0
-0.00539024 -0.00667384 0
0 0 0
-0.0024588 -0.00524543 0
0 0 0
-0.00170571 -0.0032953 0
-0.0024588 -0.00524543 0
-0.00539024 -0.00667384 0
-0.00170571 -0.0032953 0
-0.0046069 -0.00424901 0
0 0 0
-0.00170571 -0.0032953 0
0 0 0
-0.00023254 -0.0017121 0
-0.00170571 -0.0032953 0
-0.0046069 -0.00424901 0
-0.00023254 -0.0017121 0
-0.00137817 -0.00160211 0
0 0 0
-0.00023254 -0.0017121 0
0 0 0
0 0 0
-0.00023254 -0.0017121 0
-0.00137817 -0.00160211 0
0 0 0
0 0 0
0 0 0
0 0 0
0.00275812 -0.000691624 0
0.00439847 -0.00154708 0
0 0 0
0 0 0
0.00439847 -0.00154708 0
0.00563198 -0.00137679 0
0.00275812 -0.000691624 0
0.00439847 -0.00154708 0
0.00319905 -0.00290924 0
0.00542904 -0.00385354 0
0.00439847 -0.00154708 0
0.00563198 -0.00137679 0
0.00542904 -0.00385354 0
0.00626695 -0.00284658 0
0.00319905 -0.00290924 0
0.00542904 -0.00385354 0
0.00269816 -0.00539644 0
0.00355257 -0.00514966 0
0.00542904 -0.00385354 0
0.00626695 -0.00284658 0
0.00355257 -0.00514966 0
0.00355047 -0.00332302 0
0.00269816 -0.00539644 0
0.00355257 -0.00514966 0
0.000497104 -0.00683034 0
0.000480141 -0.00547816 0
0.00355257 -0.00514966 0
0.00355047 -0.00332302 0
0.000480141 -0.00547816 0
0.000403835 -0.0031764 0
0.000497104 -0.00683034 0
0.000480141 -0.00547816 0
-0.00198957 -0.00755425 0
-0.00244221 -0.005497 0
0.000480141 -0.00547816 0
0.000403835 -0.0031764 0
-0.00244221 -0.005497 0
-0.00251026 -0.00284138 0
-0.00198957 -0.00755425 0
-0.00244221 -0.005497 0
-0.00414851 -0.00765731 0
-0.00503415 -0.00543173 0
-0.00244221 -0.005497 0
-0.00251026 -0.00284138 0
-0.00503415 -0.00543173 0
-0.00507891 -0.00255005 0
-0.00414851 -0.00765731 0
-0.00503415 -0.00543173 0
-0.00539024 -0.00667384 0
-0.00700837 -0.00511215 0
-0.00503415 -0.00543173 0
-0.00507891 -0.00255005 0
-0.00700837 -0.00511215 0
-0.00739378 -0.00230635 0
-0.00539024 -0.00667384 0
-0.00700837 -0.00511215 0
-0.0046069 -0.00424901 0
-0.00724762 -0.00389453 0
-0.00700837 -0.00511215 0
-0.00739378 -0.00230635 0
-0.00724762 -0.00389453 0
-0.008534 -0.00184476 0
-0.0046069 -0.00424901 0
-0.00724762 -0.00389453 0
-0.00137817 -0.00160211 0
-0.00370583 -0.00146838 0
-0.00724762 -0.00389453 0
-0.008534 -0.00184476 0
-0.00370583 -0.00146838 0
-0.00612003 -0.00070975 0
-0.00137817 -0.00160211 0
-0.00370583 -0.00146838 0
0 0 0
0 0 0
-0.00370583 -0.00146838 0
-0.00612003 -0.00070975 0
0 0 0
0 0 0
0 0 0
0 0 0
0.00563198 -0.00137679 0
0.00556261 -0.000617423 0
0 0 0
0 0 0
0.00556261 -0.000617423 0
0.00400411 0.00029887 0
0.00563198 -0.00137679 0
0.00556261 -0.000617423 0
0.00626695 -0.00284658 0
0.00605471 -0.000964076 0
0.00556261 -0.000617423 0
0.00400411 0.00029887 0
0.00605471 -0.000964076 0
0.00531579 0.00123805 0
0.00626695 -0.00284658 0
0.00605471 -0.000964076 0
0.00355047 -0.00332302 0
0.00344356 -0.000974151 0
0.00605471 -0.000964076 0
0.00531579 0.00123805 0
0.00344356 -0.000974151 0
0.00346541 0.00165681 0
0.00355047 -0.00332302 0
0.00344356 -0.000974151 0
0.000403835 -0.0031764 0
0.000549078 -0.000711697 0
0.00344356 -0.000974151 0
0.00346541 0.00165681 0
0.000549078 -0.000711697 0
0.000940283 0.00197155 0
0.000403835 -0.0031764 0
0.000549078 -0.000711697 0
-0.00251026 -0.00284138 0
-0.00216801 -0.000250013 0
0.000549078 -0.000711697 0
0.000940283 0.00197155 0
-0.00216801 -0.000250013 0
-0.00157681 0.00239471 0
-0.00251026 -0.00284138 0
-0.00216801 -0.000250013 0
-0.00507891 -0.00255005 0
-0.00468711 0.00022189 0
-0.00216801 -0.000250013 0
-0.00157681 0.00239471 0
-0.00468711 0.00022189 0
-0.00411782 0.00284264 0
-0.00507891 -0.00255005 0
-0.00468711 0.00022189 0
-0.00739378 -0.00230635 0
-0.0071864 0.000498659 0
-0.00468711 0.00022189 0
-0.00411782 0.00284264 0
-0.0071864 0.000498659 0
-0.00672911 0.0030988 0
-0.00739378 -0.00230635 0
-0.0071864 0.000498659 0
-0.008534 -0.00184476 0
-0.0089003 0.000559172 0
-0.0071864 0.000498659 0
-0.00672911 0.0030988 0
-0.0089003 0.000559172 0
-0.00853954 0.00273346 0
-0.008534 -0.00184476 0
-0.0089003 0.000559172 0
-0.00612003 -0.00070975 0
-0.00732835 0.000368243 0
-0.0089003 0.000559172 0
-0.00853954 0.00273346 0
-0.00732835 0.000368243 0
-0.00692809 0.0013531 0
-0.00612003 -0.00070975 0
-0.00732835 0.000368243 0
0 0 0
0 0 0
-0.00732835 0.000368243 0
-0.00692809 0.0013531 0
0 0 0
0 0 0
0 0 0
0 0 0
0.00400411 0.00029887 0
0.00154457 0.000941648 0
0 0 0
0 0 0
0.00154457 0.000941648 0
-0.000355719 0.00105793 0
0.00400411 0.00029887 0
0.00154457 0.000941648 0
0.00531579 0.00123805 0
0.00403551 0.00313451 0
0.00154457 0.000941648 0
-0.000355719 0.00105793 0
0.00403551 0.00313451 0
0.00196228 0.00338646 0
0.00531579 0.00123805 0
0.00403551 0.00313451 0
0.00346541 0.00165681 0
0.00341039 0.00440472 0
0.00403551 0.00313451 0
0.00196228 0.00338646 0
0.00341039 0.00440472 0
0.00258149 0.00588093 0
0.00346541 0.00165681 0
0.00341039 0.00440472 0
0.000940283 0.00197155 0
0.00138775 0.00484761 0
0.00341039 0.00440472 0
0.00258149 0.00588093 0
0.00138775 0.00484761 0
0.00143157 0.00714928 0
0.000940283 0.00197155 0
0.00138775 0.00484761 0
-0.00157681 0.00239471 0
-0.00096943 0.00513278 0
0.00138775 0.00484761 0
0.00143157 0.00714928 0
-0.00096943 0.00513278 0
-0.000466338 0.00740086 0
-0.00157681 0.00239471 0
-0.00096943 0.00513278 0
-0.00411782 0.00284264 0
-0.00348317 0.00538086 0
-0.00096943 0.00513278 0
-0.000466338 0.00740086 0
-0.00348317 0.00538086 0
-0.00258587 0.00701945 0
-0.00411782 0.00284264 0
-0.00348317 0.00538086 0
-0.00672911 0.0030988 0
-0.00596451 0.00526897 0
-0.00348317 0.00538086 0
-0.00258587 0.00701945 0
-0.00596451 0.00526897 0
-0.00433093 0.00588649 0
-0.00672911 0.0030988 0
-0.00596451 0.00526897 0
-0.00853954 0.00273346 0
-0.00712569 0.00411799 0
-0.00596451 0.00526897 0
-0.00433093 0.00588649 0
-0.00712569 0.00411799 0
-0.0044366 0.00365976 0
-0.00853954 0.00273346 0
-0.00712569 0.00411799 0
-0.00692809 0.0013531 0
-0.00518493 0.00181269 0
-0.00712569 0.00411799 0
-0.0044366 0.00365976 0
-0.00518493 0.00181269 0
-0.0029962 0.00127253 0
-0.00692809 0.0013531 0
-0.00518493 0.00181269 0
0 0 0
0 0 0
-0.00518493 0.00181269 0
-0.0029962 0.00127253 0
0 0 0
0 0 0
0 0 0
0 0 0
-0.000355719 0.00105793 0
-0.000649974 0.00122244 0
0 0 0
0 0 0
-0.000649974 0.00122244 0
0 0 0
-0.000355719 0.00105793 0
-0.000649974 0.00122244 0
0.00196228 0.00338646 0
0.000258465 0.00245903 0
-0.000649974 0.00122244 0
0 0 0
0.000258465 0.00245903 0
0 0 0
0.00196228 0.00338646 0
0.000258465 0.00245903 0
0.00258149 0.00588093 0
0.000901008 0.00433805 0
0.000258465 0.00245903 0
0 0 0
0.000901008 0.00433805 0
0 0 0
0.00258149 0.00588093 0
0.000901008 0.00433805 0
0.00143157 0.00714928 0
0.000621096 0.00594318 0
0.000901008 0.00433805 0
0 0 0
0.000621096 0.00594318 0
0 0 0
0.00143157 0.00714928 0
0.000621096 0.00594318 0
-0.000466338 0.00740086 0
-0.000189628 0.00636079 0
0.000621096 0.00594318 0
0 0 0
-0.000189628 0.00636079 0
0 0 0
-0.000466338 0.00740086 0
-0.000189628 0.00636079 0
-0.00258587 0.00701945 0
-0.00110121 0.00530487 0
-0.000189628 0.00636079 0
0 0 0
-0.00110121 0.00530487 0
0 0 0
-0.00258587 0.00701945 0
-0.00110121 0.00530487 0
-0.00433093 0.00588649 0
-0.00169092 0.00314566 0
-0.00110121 0.00530487 0
0 0 0
-0.00169092 0.00314566 0
0 0 0
-0.00433093 0.00588649 0
-0.00169092 0.00314566 0
-0.0044366 0.00365976 0
-0.00164633 0.00106887 0
-0.00169092 0.00314566 0
0 0 0
-0.00164633 0.00106887 0
0 0 0
-0.0044366 0.00365976 0
-0.00164633 0.00106887 0
-0.0029962 0.00127253 0
-0.00137474 0.000125759 0
-0.00164633 0.00106887 0
0 0 0
-0.00137474 0.000125759 0
0 0 0
-0.0029962 0.00127253 0
-0.00137474 0.000125759 0
0 0 0
0 0 0
-0.00137474 0.000125759 0
0 0 0
0 0 0
0 0 0
SCALARS pressure double 1
LOOKUP_TABLE default
-0.0173579 -0.00946633 0.303695 0.287693 -0.00946633 -0.00852918 0.287693 0.246251 0.303695 0.287693 0.588268 0.560469 0.287693 0.246251 0.560469 0.4783 0.588268 0.560469 0.817188 0.777897 0.560469 0.4783 0.777897 0.664733 0.817188 0.777897 0.965029 0.918812 0.777897 0.664733 0.918812 0.785506 0.965029 0.918812 1.01624 0.967559 0.918812 0.785506 0.967559 0.827262 1.01624 0.967559 0.965024 0.918829 0.967559 0.827262 0.918829 0.785483 0.965024 0.918829 0.817323 0.777939 0.918829 0.785483 0.777939 0.664707 0.817323 0.777939 0.588591 0.560453 0.777939 0.664707 0.560453 0.478246 0.588591 0.560453 0.303763 0.287863 0.560453 0.478246 0.287863 0.246081 0.303763 0.287863 -0.0156575 -0.009807 0.287863 0.246081 -0.009807 -0.00868357 -0.00852918 -0.00459894 0.246251 0.180426 -0.00459894 -0.00155297 0.180426 0.096429 0.246251 0.180426 0.4783 0.350671 0.180426 0.096429 0.350671 0.188031 0.4783 0.350671 0.664733 0.487905 0.350671 0.188031 0.487905 0.262664 0.664733 0.487905 0.785506 0.576779 0.487905 0.262664 0.576779 0.311144 0.785506 0.576779 0.827262 0.607483 0.576779 0.311144 0.607483 0.327906 0.827262 0.607483 0.785483 0.576737 0.607483 0.327906 0.576737 0.31109 0.785483 0.576737 0.664707 0.487827 0.576737 0.31109 0.487827 0.262563 0.664707 0.487827 0.478246 0.350571 0.487827 0.262563 0.350571 0.187919 0.478246 0.350571 0.246081 0.180221 0.350571 0.187919 0.180221 0.0962562 0.246081 0.180221 -0.00868357 -0.00492685 0.180221 0.0962562 -0.00492685 -0.00167747 -0.00155297 -0.000315259 0.096429 0.000780295 -0.000315259 -0.00198831 0.000780295 -0.0977062 0.096429 0.000780295 0.188031 0.00487856 0.000780295 -0.0977062 0.00487856 -0.181313 0.188031 0.00487856 0.262664 0.0100033 0.00487856 -0.181313 0.0100033 -0.245625 0.262664 0.0100033 0.311144 0.0137957 0.0100033 -0.245625 0.0137957 -0.286388 0.311144 0.0137957 0.327906 0.0151577 0.0137957 -0.286388 0.0151577 -0.300372 0.327906 0.0151577 0.31109 0.0137385 0.0151577 -0.300372 0.0137385 -0.286441 0.31109 0.0137385 0.262563 0.00990521 0.0137385 -0.286441 0.00990521 -0.245712 0.262563 0.00990521 0.187919 0.00477391 0.00990521 -0.245712 0.00477391 -0.181396 0.187919 0.00477391 0.0962562 0.000669173 0.00477391 -0.181396 0.000669173 -0.09776 0.0962562 0.000669173 -0.00167747 -0.000434468 0.000669173 -0.09776 -0.000434468 -0.00206129 -0.00198831 -0.00561522 -0.0977062 -0.188802 -0.00561522 -0.00965668 -0.188802 -0.261888 -0.0977062 -0.188802 -0.181313 -0.351851 -0.188802 -0.261888 -0.351851 -0.488565 -0.181313 -0.351851 -0.245625 -0.478906 -0.351851 -0.488565 -0.478906 -0.665937 -0.245625 -0.478906 -0.286388 -0.559785 -0.478906 -0.665937 -0.559785 -0.778848 -0.286388 -0.559785 -0.300372 -0.587574 -0.559785 -0.778848 -0.587574 -0.817609 -0.300372 -0.587574 -0.286441 -0.55984 -0.587574 -0.817609 -0.55984 -0.778899 -0.286441 -0.55984 -0.245712 -0.478985 -0.55984 -0.778899 -0.478985 -0.666014 -0.245712 -0.478985 -0.181396 -0.351901 -0.478985 -0.666014 -0.351901 -0.488619 -0.181396 -0.351901 -0.09776 -0.188801 -0.351901 -0.488619 -0.188801 -0.261923 -0.09776 -0.188801 -0.00206129 -0.00554569 -0.188801 -0.261923 -0.00554569 -0.00938077 -0.00965668 -0.0111738 -0.261888 -0.309333 -0.0111738 -0.0166515 -0.309333 -0.32439 -0.261888 -0.309333 -0.488565 -0.576125 -0.309333 -0.32439 -0.576125 -0.6065 -0.488565 -0.576125 -0.665937 -0.786314 -0.576125 -0.6065 -0.786314 -0.827467 -0.665937 -0.786314 -0.778848 -0.92016 -0.786314 -0.827467 -0.92016 -0.968638 -0.778848 -0.92016 -0.817609 -0.966109 -0.92016 -0.968638 -0.966109 -1.01699 -0.817609 -0.966109 -0.778899 -0.920262 -0.966109 -1.01699 -0.920262 -0.968694 -0.778899 -0.920262 -0.666014 -0.786477 -0.920262 -0.968694 -0.786477 -0.827729 -0.666014 -0.786477 -0.488619 -0.576276 -0.786477 -0.827729 -0.576276 -0.606608 -0.488619 -0.576276 -0.261923 -0.309164 -0.576276 -0.606608 -0.309164 -0.324676 -0.261923 -0.309164 -0.00938077 -0.0111606 -0.309164 -0.324676 -0.0111606 -0.0149512 
SCALARS pressure_error double 1
LOOKUP_TABLE default