# vtk DataFile Version 3.0
#This file was generated by the deal.II library on 2026/6/8 at 18:00:24
ASCII
DATASET UNSTRUCTURED_GRID

POINTS 100 double
0 0 0
0.2 0 0
0 0.2 0
0.2 0.2 0
0 0.2 0
0.2 0.2 0
0 0.4 0
0.2 0.4 0
0 0.4 0
0.2 0.4 0
0 0.6 0
0.2 0.6 0
0 0.6 0
0.2 0.6 0
0 0.8 0
0.2 0.8 0
0 0.8 0
0.2 0.8 0
0 1 0
0.2 1 0
0.2 0 0
0.4 0 0
0.2 0.2 0
0.4 0.2 0
0.2 0.2 0
0.4 0.2 0
0.2 0.4 0
0.4 0.4 0
0.2 0.4 0
0.4 0.4 0
0.2 0.6 0
0.4 0.6 0
0.2 0.6 0
0.4 0.6 0
0.2 0.8 0
0.4 0.8 0
0.2 0.8 0
0.4 0.8 0
0.2 1 0
0.4 1 0
0.4 0 0
0.6 0 0
0.4 0.2 0
0.6 0.2 0
0.4 0.2 0
0.6 0.2 0
0.4 0.4 0
0.6 0.4 0
0.4 0.4 0
0.6 0.4 0
0.4 0.6 0
0.6 0.6 0
0.4 0.6 0
0.6 0.6 0
0.4 0.8 0
0.6 0.8 0
0.4 0.8 0
0.6 0.8 0
0.4 1 0
0.6 1 0
0.6 0 0
0.8 0 0
0.6 0.2 0
0.8 0.2 0
0.6 0.2 0
0.8 0.2 0
0.6 0.4 0
0.8 0.4 0
0.6 0.4 0
0.8 0.4 0
0.6 0.6 0
0.8 0.6 0
0.6 0.6 0
0.8 0.6 0
0.6 0.8 0
0.8 0.8 0
0.6 0.8 0
0.8 0.8 0
0.6 1 0
0.8 1 0
0.8 0 0
1 0 0
0.8 0.2 0
1 0.2 0
0.8 0.2 0
1 0.2 0
0.8 0.4 0
1 0.4 0
0.8 0.4 0
1 0.4 0
0.8 0.6 0
1 0.6 0
0.8 0.6 0
1 0.6 0
0.8 0.8 0
1 0.8 0
0.8 0.8 0
1 0.8 0
0.8 1 0
1 1 0

CELLS 25 125
4	0	1	3	2
4	4	5	7	6
4	8	9	11	10
4	12	13	15	14
4	16	17	19	18
4	20	21	23	22
4	24	25	27	26
4	28	29	31	30
4	32	33	35	34
4	36	37	39	38
4	40	41	43	42
4	44	45	47	46
4	48	49	51	50
4	52	53	55	54
4	56	57	59	58
4	60	61	63	62
4	64	65	67	66
4	68	69	71	70
4	72	73	75	74
4	76	77	79	78
4	80	81	83	82
4	84	85	87	86
4	88	89	91	90
4	92	93	95	94
4	96	97	99	98

CELL_TYPES 25
 9 9 9 9 9 9 9 9 9 9 9 9 9 9 9 9 9 9 9 9 9 9 9 9 9
POINT_DATA 100
VECTORS velocity double
0 0 0
0.587785 0 0
0 -0.587785 0
0.459379 -0.458946 0
0 -0.587785 0
0.459379 -0.458946 0
0 -0.951057 0
0.1762 -0.722944 0
0 -0.951057 0
0.1762 -0.722944 0
0 -0.951057 0
-0.160441 -0.721824 0
0 -0.951057 0
-0.160441 -0.721824 0
0 -0.587785 0
-0.452024 -0.455846 0
0 -0.587785 0
-0.452024 -0.455846 0
0 -1.22465e-16 0
-0.587785 -9.9076e-17 0
0.587785 0 0
0.951057 0 0
0.459379 -0.458946 0
0.728342 -0.165999 0
0.459379 -0.458946 0
0.728342 -0.165999 0
0.1762 -0.722944 0
0.284492 -0.272958 0
0.1762 -0.722944 0
0.284492 -0.272958 0
-0.160441 -0.721824 0
-0.264581 -0.275122 0
-0.160441 -0.721824 0
-0.264581 -0.275122 0
-0.452024 -0.455846 0
-0.715812 -0.16974 0
-0.452024 -0.455846 0
-0.715812 -0.16974 0
-0.587785 -9.9076e-17 0
-0.951057 -3.78437e-17 0
0.951057 0 0
0.951057 0 0
0.728342 -0.165999 0
0.729918 0.172813 0
0.728342 -0.165999 0
0.729918 0.172813 0
0.284492 -0.272958 0
0.283205 0.277587 0
0.284492 -0.272958 0
0.283205 0.277587 0
-0.264581 -0.275122 0
-0.268211 0.274828 0
-0.264581 -0.275122 0
-0.268211 0.274828 0
-0.715812 -0.16974 0
-0.718591 0.167031 0
-0.715812 -0.16974 0
-0.718591 0.167031 0
-0.951057 -3.78437e-17 0
-0.951057 3.78437e-17 0
0.951057 0 0
0.587785 0 0
0.729918 0.172813 0
0.463339 0.458691 0
0.729918 0.172813 0
0.463339 0.458691 0
0.283205 0.277587 0
0.172594 0.7251 0
0.283205 0.277587 0
0.172594 0.7251 0
-0.268211 0.274828 0
-0.166349 0.722781 0
-0.268211 0.274828 0
-0.166349 0.722781 0
-0.718591 0.167031 0
-0.455163 0.456416 0
-0.718591 0.167031 0
-0.455163 0.456416 0
-0.951057 3.78437e-17 0
-0.587785 9.9076e-17 0
0.587785 0 0
1.22465e-16 0 0
0.463339 0.458691 0
9.9076e-17 0.587785 0
0.463339 0.458691 0
9.9076e-17 0.587785 0
0.172594 0.7251 0
3.78437e-17 0.951057 0
0.172594 0.7251 0
3.78437e-17 0.951057 0
-0.166349 0.722781 0
-3.78437e-17 0.951057 0
-0.166349 0.722781 0
-3.78437e-17 0.951057 0
-0.455163 0.456416 0
-9.9076e-17 0.587785 0
-0.455163 0.456416 0
-9.9076e-17 0.587785 0
-0.587785 9.9076e-17 0
-1.22465e-16 1.22465e-16 0
VECTORS velocity_error double
0 0 0
0 0 0
0 0 0
0.0161492 -0.016582 0
0 0 0
0.0161492 -0.016582 0
0 0 0
0.00543514 -0.0464766 0
0 0 0
0.00543514 -0.0464766 0
0 0 0
-0.0211943 -0.0475966 0
0 0 0
-0.0211943 -0.0475966 0
0 0 0
-0.0235045 -0.0196821 0
0 0 0
-0.0235045 -0.0196821 0
0 0 0
0 0 0
0 0 0
0 0 0
0.0161492 -0.016582 0
0.0410789 -0.0156364 0
0.0161492 -0.016582 0
0.0410789 -0.0156364 0
0.00543514 -0.0464766 0
0.00940098 -0.0209347 0
0.00543514 -0.0464766 0
0.00940098 -0.0209347 0
-0.0211943 -0.0475966 0
-0.029312 -0.0187705 0
-0.0211943 -0.0475966 0
-0.029312 -0.0187705 0
-0.0235045 -0.0196821 0
-0.0536085 -0.011896 0
-0.0235045 -0.0196821 0
-0.0536085 -0.011896 0
0 0 0
0 0 0
0 0 0
0 0 0
0.0410789 -0.0156364 0
0.0395027 0.0088226 0
0.0410789 -0.0156364 0
0.0395027 0.0088226 0
0.00940098 -0.0209347 0
0.0106881 0.0163057 0
0.00940098 -0.0209347 0
0.0106881 0.0163057 0
-0.029312 -0.0187705 0
-0.025682 0.0190647 0
-0.029312 -0.0187705 0
-0.025682 0.0190647 0
-0.0536085 -0.011896 0
-0.0508297 0.0146043 0
-0.0536085 -0.011896 0
-0.0508297 0.0146043 0
0 0 0
0 0 0
0 0 0
0 0 0
0.0395027 0.0088226 0
0.0121894 0.0168372 0
0.0395027 0.0088226 0
0.0121894 0.0168372 0
0.0106881 0.0163057 0
0.00904164 0.0443207 0
0.0106881 0.0163057 0
0.00904164 0.0443207 0
-0.025682 0.0190647 0
-0.0152869 0.0466395 0
-0.025682 0.0190647 0
-0.0152869 0.0466395 0
-0.0508297 0.0146043 0
-0.0203651 0.0191119 0
-0.0508297 0.0146043 0
-0.0203651 0.0191119 0
0 0 0
0 0 0
0 0 0
0 0 0
0.0121894 0.0168372 0
0 0 0
0.0121894 0.0168372 0
0 0 0
0.00904164 0.0443207 0
0 0 0
0.00904164 0.0443207 0
0 0 0
-0.0152869 0.0466395 0
0 0 0
-0.0152869 0.0466395 0
0 0 0
-0.0203651 0.0191119 0
0 0 0
-0.0203651 0.0191119 0
0 0 0
0 0 0
0 0 0
SCALARS pressure double 1
LOOKUP_TABLE default
-0.0711961 -0.0391653 0.581859 0.477365 0.581859 0.477365 1.0051 0.837897 1.0051 0.837897 1.00464 0.837156 1.00464 0.837156 0.58046 0.477051 0.58046 0.477051 -0.0621182 -0.0414298 -0.0391653 -0.00966023 0.477365 0.209783 0.477365 0.209783 0.837897 0.385343 0.837897 0.385343 0.837156 0.38483 0.837156 0.38483 0.477051 0.20895 0.477051 0.20895 -0.0414298 -0.00900249 -0.00966023 -0.0121437 0.209783 -0.177299 0.209783 -0.177299 0.385343 -0.242424 0.385343 -0.242424 0.38483 -0.242932 0.38483 -0.242932 0.20895 -0.178209 0.20895 -0.178209 -0.00900249 -0.0132693 -0.0121437 -0.0493826 -0.177299 -0.535543 -0.177299 -0.535543 -0.242424 -0.805576 -0.242424 -0.805576 -0.242932 -0.806233 -0.242932 -0.806233 -0.178209 -0.53585 -0.178209 -0.53585 -0.0132693 -0.0503407 -0.0493826 -0.0777478 -0.535543 -0.669965 -0.535543 -0.669965 -0.805576 -1.02756 -0.805576 -1.02756 -0.806233 -1.02623 -0.806233 -1.02623 -0.53585 -0.672663 -0.53585 -0.672663 -0.0503407 -0.0686726 
SCALARS pressure_error double 1
LOOKUP_TABLE default
0.0711961 0.0391653 0.00592635 -0.0018367 0.00592635 -0.0018367 -0.0540478 -0.0684762 -0.0540478 -0.0684762 -0.0535808 -0.067735 -0.0535808 -0.067735 0.00732485 -0.00152262 0.00732485 -0.00152262 0.0621182 0.0414298 0.0391653 0.00966023 -0.0018367 -0.028147 -0.0018367 -0.028147 -0.0684762 -0.0914502 -0.0684762 -0.0914502 -0.067735 -0.0909376 -0.067735 -0.0909376 -0.00152262 -0.0273148 -0.00152262 -0.0273148 0.0414298 0.00900249 0.00966023 0.0121437 -0.028147 -0.00433661 -0.028147 -0.00433661 -0.0914502 -0.0514689 -0.0914502 -0.0514689 -0.0909376 -0.0509606 -0.0909376 -0.0509606 -0.0273148 -0.00342686 -0.0273148 -0.00342686 0.00900249 0.0132693 0.0121437 0.0493826 -0.00433661 0.0600145 -0.00433661 0.0600145 -0.0514689 0.0361551 -0.0514689 0.0361551 -0.0509606 0.036812 -0.0509606 0.036812 -0.00342686 0.0603222 -0.00342686 0.0603222 0.0132693 0.0503407 0.0493826 0.0777478 0.0600145 0.0821794 0.0600145 0.0821794 0.0361551 0.0764992 0.0361551 0.0764992 0.036812 0.0751777 0.036812 0.0751777 0.0603222 0.084878 0.0603222 0.084878 0.0503407 0.0686726 
SCALARS temperature double 1
LOOKUP_TABLE default
0 0 0 0 0 0 0 0 0 0 0 0 0 0 0 0 0 0 0 0 0 0 0 0 0 0 0 0 0 0 0 0 0 0 0 0 0 0 0 0 0 0 0 0 0 0 0 0 0 0 0 0 0 0 0 0 0 0 0 0 0 0 0 0 0 0 0 0 0 0 0 0 0 0 0 0 0 0 0 0 0 0 0 0 0 0 0 0 0 0 0 0 0 0 0 0 0 0 0 0 
SCALARS temperature_error double 1
LOOKUP_TABLE default
0 0 0.587785 0.181636 0.587785 0.181636 0.951057 0.293893 0.951057 0.293893 0.951057 0.293893 0.951057 0.293893 0.587785 0.181636 0.587785 0.181636 1.22465e-16 3.78437e-17 0 0 0.181636 -0.475528 0.181636 -0.475528 0.293893 -0.769421 0.293893 -0.769421 0.293893 -0.769421 0.293893 -0.769421 0.181636 -0.475528 0.181636 -0.475528 3.78437e-17 -9.9076e-17 0 0 -0.475528 -0.475528 -0.475528 -0.475528 -0.769421 -0.769421 -0.769421 -0.769421 -0.769421 -0.769421 -0.769421 -0.769421 -0.475528 -0.475528 -0.475528 -0.475528 -9.9076e-17 -9.9076e-17 0 0 -0.475528 0.181636 -0.475528 0.181636 -0.769421 0.293893 -0.769421 0.293893 -0.769421 0.293893 -0.769421 0.293893 -0.475528 0.181636 -0.475528 0.181636 -9.9076e-17 3.78437e-17 0 0 0.181636 0.587785 0.181636 0.587785 0.293893 0.951057 0.293893 0.951057 0.293893 0.951057 0.293893 0.951057 0.181636 0.587785 0.181636 0.587785 3.78437e-17 1.22465e-16 
