# vtk DataFile Version 3.0
#This file was generated by the deal.II library on 2026/6/8 at 18:00:26
ASCII
DATASET UNSTRUCTURED_GRID

POINTS 400 double
0 0 0
0.1 0 0
0 0.1 0
0.1 0.1 0
0.1 0 0
0.2 0 0
0.1 0.1 0
0.2 0.1 0
0 0.1 0
0.1 0.1 0
0 0.2 0
0.1 0.2 0
0.1 0.1 0
0.2 0.1 0
0.1 0.2 0
0.2 0.2 0
0 0.2 0
0.1 0.2 0
0 0.3 0
0.1 0.3 0
0.1 0.2 0
0.2 0.2 0
0.1 0.3 0
0.2 0.3 0
0 0.3 0
0.1 0.3 0
0 0.4 0
0.1 0.4 0
0.1 0.3 0
0.2 0.3 0
0.1 0.4 0
0.2 0.4 0
0 0.4 0
0.1 0.4 0
0 0.5 0
0.1 0.5 0
0.1 0.4 0
0.2 0.4 0
0.1 0.5 0
0.2 0.5 0
0 0.5 0
0.1 0.5 0
0 0.6 0
0.1 0.6 0
0.1 0.5 0
0.2 0.5 0
0.1 0.6 0
0.2 0.6 0
0 0.6 0
0.1 0.6 0
0 0.7 0
0.1 0.7 0
0.1 0.6 0
0.2 0.6 0
0.1 0.7 0
0.2 0.7 0
0 0.7 0
0.1 0.7 0
0 0.8 0
0.1 0.8 0
0.1 0.7 0
0.2 0.7 0
0.1 0.8 0
0.2 0.8 0
0 0.8 0
0.1 0.8 0
0 0.9 0
0.1 0.9 0
0.1 0.8 0
0.2 0.8 0
0.1 0.9 0
0.2 0.9 0
0 0.9 0
0.1 0.9 0
0 1 0
0.1 1 0
0.1 0.9 0
0.2 0.9 0
0.1 1 0
0.2 1 0
0.2 0 0
0.3 0 0
0.2 0.1 0
0.3 0.1 0
0.3 0 0
0.4 0 0
0.3 0.1 0
0.4 0.1 0
0.2 0.1 0
0.3 0.1 0
0.2 0.2 0
0.3 0.2 0
0.3 0.1 0
0.4 0.1 0
0.3 0.2 0
0.4 0.2 0
0.2 0.2 0
0.3 0.2 0
0.2 0.3 0
0.3 0.3 0
0.3 0.2 0
0.4 0.2 0
0.3 0.3 0
0.4 0.3 0
0.2 0.3 0
0.3 0.3 0
0.2 0.4 0
0.3 0.4 0
0.3 0.3 0
0.4 0.3 0
0.3 0.4 0
0.4 0.4 0
0.2 0.4 0
0.3 0.4 0
0.2 0.5 0
0.3 0.5 0
0.3 0.4 0
0.4 0.4 0
0.3 0.5 0
0.4 0.5 0
0.2 0.5 0
0.3 0.5 0
0.2 0.6 0
0.3 0.6 0
0.3 0.5 0
0.4 0.5 0
0.3 0.6 0
0.4 0.6 0
0.2 0.6 0
0.3 0.6 0
0.2 0.7 0
0.3 0.7 0
0.3 0.6 0
0.4 0.6 0
0.3 0.7 0
0.4 0.7 0
0.2 0.7 0
0.3 0.7 0
0.2 0.8 0
0.3 0.8 0
0.3 0.7 0
0.4 0.7 0
0.3 0.8 0
0.4 0.8 0
0.2 0.8 0
0.3 0.8 0
0.2 0.9 0
0.3 0.9 0
0.3 0.8 0
0.4 0.8 0
0.3 0.9 0
0.4 0.9 0
0.2 0.9 0
0.3 0.9 0
0.2 1 0
0.3 1 0
0.3 0.9 0
0.4 0.9 0
0.3 1 0
0.4 1 0
0.4 0 0
0.5 0 0
0.4 0.1 0
0.5 0.1 0
0.5 0 0
0.6 0 0
0.5 0.1 0
0.6 0.1 0
0.4 0.1 0
0.5 0.1 0
0.4 0.2 0
0.5 0.2 0
0.5 0.1 0
0.6 0.1 0
0.5 0.2 0
0.6 0.2 0
0.4 0.2 0
0.5 0.2 0
0.4 0.3 0
0.5 0.3 0
0.5 0.2 0
0.6 0.2 0
0.5 0.3 0
0.6 0.3 0
0.4 0.3 0
0.5 0.3 0
0.4 0.4 0
0.5 0.4 0
0.5 0.3 0
0.6 0.3 0
0.5 0.4 0
0.6 0.4 0
0.4 0.4 0
0.5 0.4 0
0.4 0.5 0
0.5 0.5 0
0.5 0.4 0
0.6 0.4 0
0.5 0.5 0
0.6 0.5 0
0.4 0.5 0
0.5 0.5 0
0.4 0.6 0
0.5 0.6 0
0.5 0.5 0
0.6 0.5 0
0.5 0.6 0
0.6 0.6 0
0.4 0.6 0
0.5 0.6 0
0.4 0.7 0
0.5 0.7 0
0.5 0.6 0
0.6 0.6 0
0.5 0.7 0
0.6 0.7 0
0.4 0.7 0
0.5 0.7 0
0.4 0.8 0
0.5 0.8 0
0.5 0.7 0
0.6 0.7 0
0.5 0.8 0
0.6 0.8 0
0.4 0.8 0
0.5 0.8 0
0.4 0.9 0
0.5 0.9 0
0.5 0.8 0
0.6 0.8 0
0.5 0.9 0
0.6 0.9 0
0.4 0.9 0
0.5 0.9 0
0.4 1 0
0.5 1 0
0.5 0.9 0
0.6 0.9 0
0.5 1 0
0.6 1 0
0.6 0 0
0.7 0 0
0.6 0.1 0
0.7 0.1 0
0.7 0 0
0.8 0 0
0.7 0.1 0
0.8 0.1 0
0.6 0.1 0
0.7 0.1 0
0.6 0.2 0
0.7 0.2 0
0.7 0.1 0
0.8 0.1 0
0.7 0.2 0
0.8 0.2 0
0.6 0.2 0
0.7 0.2 0
0.6 0.3 0
0.7 0.3 0
0.7 0.2 0
0.8 0.2 0
0.7 0.3 0
0.8 0.3 0
0.6 0.3 0
0.7 0.3 0
0.6 0.4 0
0.7 0.4 0
0.7 0.3 0
0.8 0.3 0
0.7 0.4 0
0.8 0.4 0
0.6 0.4 0
0.7 0.4 0
0.6 0.5 0
0.7 0.5 0
0.7 0.4 0
0.8 0.4 0
0.7 0.5 0
0.8 0.5 0
0.6 0.5 0
0.7 0.5 0
0.6 0.6 0
0.7 0.6 0
0.7 0.5 0
0.8 0.5 0
0.7 0.6 0
0.8 0.6 0
0.6 0.6 0
0.7 0.6 0
0.6 0.7 0
0.7 0.7 0
0.7 0.6 0
0.8 0.6 0
0.7 0.7 0
0.8 0.7 0
0.6 0.7 0
0.7 0.7 0
0.6 0.8 0
0.7 0.8 0
0.7 0.7 0
0.8 0.7 0
0.7 0.8 0
0.8 0.8 0
0.6 0.8 0
0.7 0.8 0
0.6 0.9 0
0.7 0.9 0
0.7 0.8 0
0.8 0.8 0
0.7 0.9 0
0.8 0.9 0
0.6 0.9 0
0.7 0.9 0
0.6 1 0
0.7 1 0
0.7 0.9 0
0.8 0.9 0
0.7 1 0
0.8 1 0
0.8 0 0
0.9 0 0
0.8 0.1 0
0.9 0.1 0
0.9 0 0
1 0 0
0.9 0.1 0
1 0.1 0
0.8 0.1 0
0.9 0.1 0
0.8 0.2 0
0.9 0.2 0
0.9 0.1 0
1 0.1 0
0.9 0.2 0
1 0.2 0
0.8 0.2 0
0.9 0.2 0
0.8 0.3 0
0.9 0.3 0
0.9 0.2 0
1 0.2 0
0.9 0.3 0
1 0.3 0
0.8 0.3 0
0.9 0.3 0
0.8 0.4 0
0.9 0.4 0
0.9 0.3 0
1 0.3 0
0.9 0.4 0
1 0.4 0
0.8 0.4 0
0.9 0.4 0
0.8 0.5 0
0.9 0.5 0
0.9 0.4 0
1 0.4 0
0.9 0.5 0
1 0.5 0
0.8 0.5 0
0.9 0.5 0
0.8 0.6 0
0.9 0.6 0
0.9 0.5 0
1 0.5 0
0.9 0.6 0
1 0.6 0
0.8 0.6 0
0.9 0.6 0
0.8 0.7 0
0.9 0.7 0
0.9 0.6 0
1 0.6 0
0.9 0.7 0
1 0.7 0
0.8 0.7 0
0.9 0.7 0
0.8 0.8 0
0.9 0.8 0
0.9 0.7 0
1 0.7 0
0.9 0.8 0
1 0.8 0
0.8 0.8 0
0.9 0.8 0
0.8 0.9 0
0.9 0.9 0
0.9 0.8 0
1 0.8 0
0.9 0.9 0
1 0.9 0
0.8 0.9 0
0.9 0.9 0
0.8 1 0
0.9 1 0
0.9 0.9 0
1 0.9 0
0.9 1 0
1 1 0

CELLS 100 500
4	0	1	3	2
4	4	5	7	6
4	8	9	11	10
4	12	13	15	14
4	16	17	19	18
4	20	21	23	22
4	24	25	27	26
4	28	29	31	30
4	32	33	35	34
4	36	37	39	38
4	40	41	43	42
4	44	45	47	46
4	48	49	51	50
4	52	53	55	54
4	56	57	59	58
4	60	61	63	62
4	64	65	67	66
4	68	69	71	70
4	72	73	75	74
4	76	77	79	78
4	80	81	83	82
4	84	85	87	86
4	88	89	91	90
4	92	93	95	94
4	96	97	99	98
4	100	101	103	102
4	104	105	107	106
4	108	109	111	110
4	112	113	115	114
4	116	117	119	118
4	120	121	123	122
4	124	125	127	126
4	128	129	131	130
4	132	133	135	134
4	136	137	139	138
4	140	141	143	142
4	144	145	147	146
4	148	149	151	150
4	152	153	155	154
4	156	157	159	158
4	160	161	163	162
4	164	165	167	166
4	168	169	171	170
4	172	173	175	174
4	176	177	179	178
4	180	181	183	182
4	184	185	187	186
4	188	189	191	190
4	192	193	195	194
4	196	197	199	198
4	200	201	203	202
4	204	205	207	206
4	208	209	211	210
4	212	213	215	214
4	216	217	219	218
4	220	221	223	222
4	224	225	227	226
4	228	229	231	230
4	232	233	235	234
4	236	237	239	238
4	240	241	243	242
4	244	245	247	246
4	248	249	251	250
4	252	253	255	254
4	256	257	259	258
4	260	261	263	262
4	264	265	267	266
4	268	269	271	270
4	272	273	275	274
4	276	277	279	278
4	280	281	283	282
4	284	285	287	286
4	288	289	291	290
4	292	293	295	294
4	296	297	299	298
4	300	301	303	302
4	304	305	307	306
4	308	309	311	310
4	312	313	315	314
4	316	317	319	318
4	320	321	323	322
4	324	325	327	326
4	328	329	331	330
4	332	333	335	334
4	336	337	339	338
4	340	341	343	342
4	344	345	347	346
4	348	349	351	350
4	352	353	355	354
4	356	357	359	358
4	360	361	363	362
4	364	365	367	366
4	368	369	371	370
4	372	373	375	374
4	376	377	379	378
4	380	381	383	382
4	384	385	387	386
4	388	389	391	390
4	392	393	395	394
4	396	397	399	398

CELL_TYPES 100
 9 9 9 9 9 9 9 9 9 9 9 9 9 9 9 9 9 9 9 9 9 9 9 9 9 9 9 9 9 9 9 9 9 9 9 9 9 9 9 9 9 9 9 9 9 9 9 9 9 9 9 9 9 9 9 9 9 9 9 9 9 9 9 9 9 9 9 9 9 9 9 9 9 9 9 9 9 9 9 9 9 9 9 9 9 9 9 9 9 9 9 9 9 9 9 9 9 9 9 9
POINT_DATA 400
VECTORS velocity double
0 0 0
0.309017 0 0
0 -0.309017 0
0.292334 -0.294437 0
0.309017 0 0
0.587785 0 0
0.292334 -0.294437 0
0.556261 -0.249308 0
0 -0.309017 0
0.292334 -0.294437 0
0 -0.587785 0
0.248986 -0.559066 0
0.292334 -0.294437 0
0.556261 -0.249308 0
0.248986 -0.559066 0
0.472329 -0.472619 0
0 -0.587785 0
0.248986 -0.559066 0
0 -0.809017 0
0.180918 -0.767319 0
0.248986 -0.559066 0
0.472329 -0.472619 0
0.180918 -0.767319 0
0.342796 -0.649112 0
0 -0.809017 0
0.180918 -0.767319 0
0 -0.951057 0
0.0955838 -0.899693 0
0.180918 -0.767319 0
0.342796 -0.649112 0
0.0955838 -0.899693 0
0.181137 -0.762591 0
0 -0.951057 0
0.0955838 -0.899693 0
0 -1 0
0.0011755 -0.94453 0
0.0955838 -0.899693 0
0.181137 -0.762591 0
0.0011755 -0.94453 0
0.00199049 -0.801463 0
0 -1 0
0.0011755 -0.94453 0
0 -0.951057 0
-0.0933833 -0.897895 0
0.0011755 -0.94453 0
0.00199049 -0.801463 0
-0.0933833 -0.897895 0
-0.177488 -0.761764 0
0 -0.951057 0
-0.0933833 -0.897895 0
0 -0.809017 0
-0.179177 -0.764178 0
-0.0933833 -0.897895 0
-0.177488 -0.761764 0
-0.179177 -0.764178 0
-0.340102 -0.647835 0
0 -0.809017 0
-0.179177 -0.764178 0
0 -0.587785 0
-0.248294 -0.555724 0
-0.179177 -0.764178 0
-0.340102 -0.647835 0
-0.248294 -0.555724 0
-0.470922 -0.471279 0
0 -0.587785 0
-0.248294 -0.555724 0
0 -0.309017 0
-0.293661 -0.292181 0
-0.248294 -0.555724 0
-0.470922 -0.471279 0
-0.293661 -0.292181 0
-0.557641 -0.248398 0
0 -0.309017 0
-0.293661 -0.292181 0
0 -1.22465e-16 0
-0.309017 -1.16471e-16 0
-0.293661 -0.292181 0
-0.557641 -0.248398 0
-0.309017 -1.16471e-16 0
-0.587785 -9.9076e-17 0
0.587785 0 0
0.809017 0 0
0.556261 -0.249308 0
0.765025 -0.180089 0
0.809017 0 0
0.951057 0 0
0.765025 -0.180089 0
0.898881 -0.094115 0
0.556261 -0.249308 0
0.765025 -0.180089 0
0.472329 -0.472619 0
0.649079 -0.34164 0
0.765025 -0.180089 0
0.898881 -0.094115 0
0.649079 -0.34164 0
0.763154 -0.178789 0
0.472329 -0.472619 0
0.649079 -0.34164 0
0.342796 -0.649112 0
0.471978 -0.47038 0
0.649079 -0.34164 0
0.763154 -0.178789 0
0.471978 -0.47038 0
0.555466 -0.246675 0
0.342796 -0.649112 0
0.471978 -0.47038 0
0.181137 -0.762591 0
0.249516 -0.553537 0
0.471978 -0.47038 0
0.555466 -0.246675 0
0.249516 -0.553537 0
0.293482 -0.290711 0
0.181137 -0.762591 0
0.249516 -0.553537 0
0.00199049 -0.801463 0
0.00244315 -0.582284 0
0.249516 -0.553537 0
0.293482 -0.290711 0
0.00244315 -0.582284 0
0.0025103 -0.306168 0
0.00199049 -0.801463 0
0.00244315 -0.582284 0
-0.177488 -0.761764 0
-0.244965 -0.553583 0
0.00244315 -0.582284 0
0.0025103 -0.306168 0
-0.244965 -0.553583 0
-0.288809 -0.291336 0
-0.177488 -0.761764 0
-0.244965 -0.553583 0
-0.340102 -0.647835 0
-0.46852 -0.470418 0
-0.244965 -0.553583 0
-0.288809 -0.291336 0
-0.46852 -0.470418 0
-0.551619 -0.247691 0
-0.340102 -0.647835 0
-0.46852 -0.470418 0
-0.470922 -0.471279 0
-0.647262 -0.341599 0
-0.46852 -0.470418 0
-0.551619 -0.247691 0
-0.647262 -0.341599 0
-0.760888 -0.179791 0
-0.470922 -0.471279 0
-0.647262 -0.341599 0
-0.557641 -0.248398 0
-0.765718 -0.180168 0
-0.647262 -0.341599 0
-0.760888 -0.179791 0
-0.765718 -0.180168 0
-0.898392 -0.0947818 0
-0.557641 -0.248398 0
-0.765718 -0.180168 0
-0.587785 -9.9076e-17 0
-0.809017 -7.19829e-17 0
-0.765718 -0.180168 0
-0.898392 -0.0947818 0
-0.809017 -7.19829e-17 0
-0.951057 -3.78437e-17 0
0.951057 0 0
1 0 0
0.898881 -0.094115 0
0.945498 0.000617421 0
1 0 0
0.951057 0 0
0.945498 0.000617421 0
0.900508 0.0951926 0
0.898881 -0.094115 0
0.945498 0.000617421 0
0.763154 -0.178789 0
0.802962 0.000964454 0
0.945498 0.000617421 0
0.900508 0.0951926 0
0.802962 0.000964454 0
0.764105 0.180397 0
0.763154 -0.178789 0
0.802962 0.000964454 0
0.555466 -0.246675 0
0.584339 0.000974535 0
0.802962 0.000964454 0
0.764105 0.180397 0
0.584339 0.000974535 0
0.555551 0.24834 0
0.555466 -0.246675 0
0.584339 0.000974535 0
0.293482 -0.290711 0
0.30846 0.000711688 0
0.584339 0.000974535 0
0.555551 0.24834 0
0.30846 0.000711688 0
0.292945 0.291915 0
0.293482 -0.290711 0
0.30846 0.000711688 0
0.0025103 -0.306168 0
0.0021675 0.000249897 0
0.30846 0.000711688 0
0.292945 0.291915 0
0.0021675 0.000249897 0
0.00157666 0.306615 0
0.0025103 -0.306168 0
0.0021675 0.000249897 0
-0.288809 -0.291336 0
-0.304323 -0.00022204 0
0.0021675 0.000249897 0
0.00157666 0.306615 0
-0.304323 -0.00022204 0
-0.289769 0.291044 0
-0.288809 -0.291336 0
-0.304323 -0.00022204 0
-0.551619 -0.247691 0
-0.580593 -0.000498782 0
-0.304323 -0.00022204 0
-0.289769 0.291044 0
-0.580593 -0.000498782 0
-0.552285 0.246899 0
-0.551619 -0.247691 0
-0.580593 -0.000498782 0
-0.760888 -0.179791 0
-0.800118 -0.000559326 0
-0.580593 -0.000498782 0
-0.552285 0.246899 0
-0.800118 -0.000559326 0
-0.760883 0.178902 0
-0.760888 -0.179791 0
-0.800118 -0.000559326 0
-0.898392 -0.0947818 0
-0.943731 -0.000368252 0
-0.800118 -0.000559326 0
-0.760883 0.178902 0
-0.943731 -0.000368252 0
-0.897584 0.0941387 0
-0.898392 -0.0947818 0
-0.943731 -0.000368252 0
-0.951057 -3.78437e-17 0
-1 -3.46914e-32 0
-0.943731 -0.000368252 0
-0.897584 0.0941387 0
-1 -3.46914e-32 0
-0.951057 3.78437e-17 0
0.951057 0 0
0.809017 0 0
0.900508 0.0951926 0
0.767879 0.180695 0
0.809017 0 0
0.587785 0 0
0.767879 0.180695 0
0.559375 0.248942 0
0.900508 0.0951926 0
0.767879 0.180695 0
0.764105 0.180397 0
0.650473 0.34236 0
0.767879 0.180695 0
0.559375 0.248942 0
0.650473 0.34236 0
0.473565 0.472142 0
0.764105 0.180397 0
0.650473 0.34236 0
0.555551 0.24834 0
0.47212 0.471126 0
0.650473 0.34236 0
0.473565 0.472142 0
0.47212 0.471126 0
0.342913 0.648628 0
0.555551 0.24834 0
0.47212 0.471126 0
0.292945 0.291915 0
0.248609 0.554168 0
0.47212 0.471126 0
0.342913 0.648628 0
0.248609 0.554168 0
0.180203 0.762272 0
0.292945 0.291915 0
0.248609 0.554168 0
0.00157666 0.306615 0
0.000969849 0.582648 0
0.248609 0.554168 0
0.180203 0.762272 0
0.000969849 0.582648 0
0.000466706 0.801616 0
0.00157666 0.306615 0
0.000969849 0.582648 0
-0.289769 0.291044 0
-0.246515 0.553633 0
0.000969849 0.582648 0
0.000466706 0.801616 0
-0.246515 0.553633 0
-0.17905 0.762402 0
-0.289769 0.291044 0
-0.246515 0.553633 0
-0.552285 0.246899 0
-0.469565 0.47026 0
-0.246515 0.553633 0
-0.17905 0.762402 0
-0.469565 0.47026 0
-0.341163 0.648623 0
-0.552285 0.246899 0
-0.469565 0.47026 0
-0.760883 0.178902 0
-0.647384 0.341376 0
-0.469565 0.47026 0
-0.341163 0.648623 0
-0.647384 0.341376 0
-0.471092 0.471868 0
-0.760883 0.178902 0
-0.647384 0.341376 0
-0.897584 0.0941387 0
-0.764238 0.179824 0
-0.647384 0.341376 0
-0.471092 0.471868 0
-0.764238 0.179824 0
-0.556023 0.248727 0
-0.897584 0.0941387 0
-0.764238 0.179824 0
-0.951057 3.78437e-17 0
-0.809017 7.19829e-17 0
-0.764238 0.179824 0
-0.556023 0.248727 0
-0.809017 7.19829e-17 0
-0.587785 9.9076e-17 0
0.587785 0 0
0.309017 0 0
0.559375 0.248942 0
0.294544 0.292671 0
0.309017 0 0
1.22465e-16 0 0
0.294544 0.292671 0
1.16471e-16 0.309017 0
0.559375 0.248942 0
0.294544 0.292671 0
0.473565 0.472142 0
0.249741 0.55656 0
0.294544 0.292671 0
1.16471e-16 0.309017 0
0.249741 0.55656 0
9.9076e-17 0.587785 0
0.473565 0.472142 0
0.249741 0.55656 0
0.342913 0.648628 0
0.180736 0.765086 0
0.249741 0.55656 0
9.9076e-17 0.587785 0
0.180736 0.765086 0
7.19829e-17 0.809017 0
0.342913 0.648628 0
0.180736 0.765086 0
0.180203 0.762272 0
0.0948704 0.898569 0
0.180736 0.765086 0
7.19829e-17 0.809017 0
0.0948704 0.898569 0
3.78437e-17 0.951057 0
0.180203 0.762272 0
0.0948704 0.898569 0
0.000466706 0.801616 0
0.000189815 0.944699 0
0.0948704 0.898569 0
3.78437e-17 0.951057 0
0.000189815 0.944699 0
7.4988e-33 1 0
0.000466706 0.801616 0
0.000189815 0.944699 0
-0.17905 0.762402 0
-0.0943906 0.899207 0
0.000189815 0.944699 0
7.4988e-33 1 0
-0.0943906 0.899207 0
-3.78437e-17 0.951057 0
-0.17905 0.762402 0
-0.0943906 0.899207 0
-0.341163 0.648623 0
-0.179945 0.766278 0
-0.0943906 0.899207 0
-3.78437e-17 0.951057 0
-0.179945 0.766278 0
-7.19829e-17 0.809017 0
-0.341163 0.648623 0
-0.179945 0.766278 0
-0.471092 0.471868 0
-0.248354 0.55795 0
-0.179945 0.766278 0
-7.19829e-17 0.809017 0
-0.248354 0.55795 0
-9.9076e-17 0.587785 0
-0.471092 0.471868 0
-0.248354 0.55795 0
-0.556023 0.248727 0
-0.292519 0.293768 0
-0.248354 0.55795 0
-9.9076e-17 0.587785 0
-0.292519 0.293768 0
-1.16471e-16 0.309017 0
-0.556023 0.248727 0
-0.292519 0.293768 0
-0.587785 9.9076e-17 0
-0.309017 1.16471e-16 0
-0.292519 0.293768 0
-1.16471e-16 0.309017 0
-0.309017 1.16471e-16 0
-1.22465e-16 1.22465e-16 0
VECTORS velocity_error double
0 0 0
0 0 0
0 0 0
0.00155873 0.000544473 0
0 0 0
0 0 0
0.00155873 0.000544473 0
0.00275593 -0.000691931 0
0 0 0
0.00155873 0.000544473 0
0 0 0
0.00101384 4.86445e-05 0
0.00155873 0.000544473 0
0.00275593 -0.000691931 0
0.00101384 4.86445e-05 0
0.00319912 -0.00290964 0
0 0 0
0.00101384 4.86445e-05 0
0 0 0
0.000718065 -0.00210165 0
0.00101384 4.86445e-05 0
0.00319912 -0.00290964 0
0.000718065 -0.00210165 0
0.00269541 -0.00539621 0
0 0 0
0.000718065 -0.00210165 0
0 0 0
-9.2246e-05 -0.00481555 0
0.000718065 -0.00210165 0
0.00269541 -0.00539621 0
-9.2246e-05 -0.00481555 0
0.000498254 -0.00683012 0
0 0 0
-9.2246e-05 -0.00481555 0
0 0 0
-0.0011755 -0.00652647 0
-9.2246e-05 -0.00481555 0
0.000498254 -0.00683012 0
-0.0011755 -0.00652647 0
-0.00199049 -0.00755433 0
0 0 0
-0.0011755 -0.00652647 0
0 0 0
-0.00210821 -0.00661337 0
-0.0011755 -0.00652647 0
-0.00199049 -0.00755433 0
-0.00210821 -0.00661337 0
-0.00414731 -0.00765707 0
0 0 0
-0.00210821 -0.00661337 0
0 0 0
-0.0024583 -0.00524279 0
-0.00210821 -0.00661337 0
-0.00414731 -0.00765707 0
-0.0024583 -0.00524279 0
-0.00538909 -0.00667346 0
0 0 0
-0.0024583 -0.00524279 0
0 0 0
-0.00170577 -0.00329332 0
-0.0024583 -0.00524279 0
-0.00538909 -0.00667346 0
-0.00170577 -0.00329332 0
-0.00460663 -0.00424887 0
0 0 0
-0.00170577 -0.00329332 0
0 0 0
-0.000231555 -0.00171116 0
-0.00170577 -0.00329332 0
-0.00460663 -0.00424887 0
-0.000231555 -0.00171116 0
-0.00137626 -0.00160205 0
0 0 0
-0.000231555 -0.00171116 0
0 0 0
0 0 0
-0.000231555 -0.00171116 0
-0.00137626 -0.00160205 0
0 0 0
0 0 0
0 0 0
0 0 0
0.00275593 -0.000691931 0
0.00439551 -0.00154623 0
0 0 0
0 0 0
0.00439551 -0.00154623 0
0.00562784 -0.00137646 0
0.00275593 -0.000691931 0
0.00439551 -0.00154623 0
0.00319912 -0.00290964 0
0.00542904 -0.0038516 0
0.00439551 -0.00154623 0
0.00562784 -0.00137646 0
0.00542904 -0.0038516 0
0.00626732 -0.00284629 0
0.00319912 -0.00290964 0
0.00542904 -0.0038516 0
0.00269541 -0.00539621 0
0.00354982 -0.00514866 0
0.00542904 -0.0038516 0
0.00626732 -0.00284629 0
0.00354982 -0.00514866 0
0.0035508 -0.00332513 0
0.00269541 -0.00539621 0
0.00354982 -0.00514866 0
0.000498254 -0.00683012 0
0.000484165 -0.00548008 0
0.00354982 -0.00514866 0
0.0035508 -0.00332513 0
0.000484165 -0.00548008 0
0.00041109 -0.00318196 0
0.000498254 -0.00683012 0
0.000484165 -0.00548008 0
-0.00199049 -0.00755433 0
-0.00244315 -0.00550118 0
0.000484165 -0.00548008 0
0.00041109 -0.00318196 0
-0.00244315 -0.00550118 0
-0.0025103 -0.00284871 0
-0.00199049 -0.00755433 0
-0.00244315 -0.00550118 0
-0.00414731 -0.00765707 0
-0.00503521 -0.00543368 0
-0.00244315 -0.00550118 0
-0.0025103 -0.00284871 0
-0.00503521 -0.00543368 0
-0.00508378 -0.00255659 0
-0.00414731 -0.00765707 0
-0.00503521 -0.00543368 0
-0.00538909 -0.00667346 0
-0.00700865 -0.00511052 0
-0.00503521 -0.00543368 0
-0.00508378 -0.00255659 0
-0.00700865 -0.00511052 0
-0.00739751 -0.00230919 0
-0.00538909 -0.00667346 0
-0.00700865 -0.00511052 0
-0.00460663 -0.00424887 0
-0.00724645 -0.00389246 0
-0.00700865 -0.00511052 0
-0.00739751 -0.00230919 0
-0.00724645 -0.00389246 0
-0.00853255 -0.00184498 0
-0.00460663 -0.00424887 0
-0.00724645 -0.00389246 0
-0.00137626 -0.00160205 0
-0.00370329 -0.00146768 0
-0.00724645 -0.00389246 0
-0.00853255 -0.00184498 0
-0.00370329 -0.00146768 0
-0.00611686 -0.000709737 0
-0.00137626 -0.00160205 0
-0.00370329 -0.00146768 0
0 0 0
0 0 0
-0.00370329 -0.00146768 0
-0.00611686 -0.000709737 0
0 0 0
0 0 0
0 0 0
0 0 0
0.00562784 -0.00137646 0
0.0055584 -0.000617421 0
0 0 0
0 0 0
0.0055584 -0.000617421 0
0.00400001 0.000298933 0
0.00562784 -0.00137646 0
0.0055584 -0.000617421 0
0.00626732 -0.00284629 0
0.00605548 -0.000964454 0
0.0055584 -0.000617421 0
0.00400001 0.000298933 0
0.00605548 -0.000964454 0
0.00531612 0.00123858 0
0.00626732 -0.00284629 0
0.00605548 -0.000964454 0
0.0035508 -0.00332513 0
0.00344626 -0.000974535 0
0.00605548 -0.000964454 0
0.00531612 0.00123858 0
0.00344626 -0.000974535 0
0.0034662 0.00166011 0
0.0035508 -0.00332513 0
0.00344626 -0.000974535 0
0.00041109 -0.00318196 0
0.000557112 -0.000711688 0
0.00344626 -0.000974535 0
0.0034662 0.00166011 0
0.000557112 -0.000711688 0
0.000947175 0.00197759 0
0.00041109 -0.00318196 0
0.000557112 -0.000711688 0
-0.0025103 -0.00284871 0
-0.0021675 -0.000249897 0
0.000557112 -0.000711688 0
0.000947175 0.00197759 0
-0.0021675 -0.000249897 0
-0.00157666 0.00240187 0
-0.0025103 -0.00284871 0
-0.0021675 -0.000249897 0
-0.00508378 -0.00255659 0
-0.00469362 0.00022204 0
-0.0021675 -0.000249897 0
-0.00157666 0.00240187 0
-0.00469362 0.00022204 0
-0.00412326 0.00284881 0
-0.00508378 -0.00255659 0
-0.00469362 0.00022204 0
-0.00739751 -0.00230919 0
-0.00719211 0.000498782 0
-0.00469362 0.00022204 0
-0.00412326 0.00284881 0
-0.00719211 0.000498782 0
-0.00673209 0.00310124 0
-0.00739751 -0.00230919 0
-0.00719211 0.000498782 0
-0.00853255 -0.00184498 0
-0.00889924 0.000559326 0
-0.00719211 0.000498782 0
-0.00673209 0.00310124 0
-0.00889924 0.000559326 0
-0.0085383 0.00273323 0
-0.00853255 -0.00184498 0
-0.00889924 0.000559326 0
-0.00611686 -0.000709737 0
-0.00732504 0.000368252 0
-0.00889924 0.000559326 0
-0.0085383 0.00273323 0
-0.00732504 0.000368252 0
-0.00692483 0.00135285 0
-0.00611686 -0.000709737 0
-0.00732504 0.000368252 0
0 0 0
0 0 0
-0.00732504 0.000368252 0
-0.00692483 0.00135285 0
0 0 0
0 0 0
0 0 0
0 0 0
0.00400001 0.000298933 0
0.00154137 0.000940688 0
0 0 0
0 0 0
0.00154137 0.000940688 0
-0.000358081 0.00105795 0
0.00400001 0.000298933 0
0.00154137 0.000940688 0
0.00531612 0.00123858 0
0.0040358 0.00313194 0
0.00154137 0.000940688 0
-0.000358081 0.00105795 0
0.0040358 0.00313194 0
0.00196321 0.00338677 0
0.00531612 0.00123858 0
0.0040358 0.00313194 0
0.0034662 0.00166011 0
0.003408 0.00440248 0
0.0040358 0.00313194 0
0.00196321 0.00338677 0
0.003408 0.00440248 0
0.0025785 0.00588044 0
0.0034662 0.00166011 0
0.003408 0.00440248 0
0.000947175 0.00197759 0
0.00139126 0.00484913 0
0.003408 0.00440248 0
0.0025785 0.00588044 0
0.00139126 0.00484913 0
0.00143226 0.00714865 0
0.000947175 0.00197759 0
0.00139126 0.00484913 0
-0.00157666 0.00240187 0
-0.000969849 0.00513718 0
0.00139126 0.00484913 0
0.00143226 0.00714865 0
-0.000969849 0.00513718 0
-0.000466706 0.0074005 0
-0.00157666 0.00240187 0
-0.000969849 0.00513718 0
-0.00412326 0.00284881 0
-0.0034853 0.00538352 0
-0.000969849 0.00513718 0
-0.000466706 0.0074005 0
-0.0034853 0.00538352 0
-0.00258541 0.00701858 0
-0.00412326 0.00284881 0
-0.0034853 0.00538352 0
-0.00673209 0.00310124 0
-0.00596327 0.00526789 0
-0.0034853 0.00538352 0
-0.00258541 0.00701858 0
-0.00596327 0.00526789 0
-0.00432897 0.00588587 0
-0.00673209 0.00310124 0
-0.00596327 0.00526789 0
-0.0085383 0.00273323 0
-0.00712482 0.00411585 0
-0.00596327 0.00526789 0
-0.00432897 0.00588587 0
-0.00712482 0.00411585 0
-0.00443667 0.00366004 0
-0.0085383 0.00273323 0
-0.00712482 0.00411585 0
-0.00692483 0.00135285 0
-0.00518252 0.00181203 0
-0.00712482 0.00411585 0
-0.00443667 0.00366004 0
-0.00518252 0.00181203 0
-0.00299436 0.00127283 0
-0.00692483 0.00135285 0
-0.00518252 0.00181203 0
0 0 0
0 0 0
-0.00518252 0.00181203 0
-0.00299436 0.00127283 0
0 0 0
0 0 0
0 0 0
0 0 0
-0.000358081 0.00105795 0
-0.000651265 0.00122125 0
0 0 0
0 0 0
-0.000651265 0.00122125 0
0 0 0
-0.000358081 0.00105795 0
-0.000651265 0.00122125 0
0.00196321 0.00338677 0
0.000258994 0.00245696 0
-0.000651265 0.00122125 0
0 0 0
0.000258994 0.00245696 0
0 0 0
0.00196321 0.00338677 0
0.000258994 0.00245696 0
0.0025785 0.00588044 0
0.000899972 0.00433528 0
0.000258994 0.00245696 0
0 0 0
0.000899972 0.00433528 0
0 0 0
0.0025785 0.00588044 0
0.000899972 0.00433528 0
0.00143226 0.00714865 0
0.000621122 0.00593943 0
0.000899972 0.00433528 0
0 0 0
0.000621122 0.00593943 0
0 0 0
0.00143226 0.00714865 0
0.000621122 0.00593943 0
-0.000466706 0.0074005 0
-0.000189815 0.00635713 0
0.000621122 0.00593943 0
0 0 0
-0.000189815 0.00635713 0
0 0 0
-0.000466706 0.0074005 0
-0.000189815 0.00635713 0
-0.00258541 0.00701858 0
-0.00110089 0.00530148 0
-0.000189815 0.00635713 0
0 0 0
-0.00110089 0.00530148 0
0 0 0
-0.00258541 0.00701858 0
-0.00110089 0.00530148 0
-0.00432897 0.00588587 0
-0.00169024 0.00314321 0
-0.00110089 0.00530148 0
0 0 0
-0.00169024 0.00314321 0
0 0 0
-0.00432897 0.00588587 0
-0.00169024 0.00314321 0
-0.00443667 0.00366004 0
-0.00164632 0.00106693 0
-0.00169024 0.00314321 0
0 0 0
-0.00164632 0.00106693 0
0 0 0
-0.00443667 0.00366004 0
-0.00164632 0.00106693 0
-0.00299436 0.00127283 0
-0.00137372 0.000124675 0
-0.00164632 0.00106693 0
0 0 0
-0.00137372 0.000124675 0
0 0 0
-0.00299436 0.00127283 0
-0.00137372 0.000124675 0
0 0 0
0 0 0
-0.00137372 0.000124675 0
0 0 0
0 0 0
0 0 0
SCALARS pressure double 1
LOOKUP_TABLE default
-0.0173591 -0.00946682 0.303695 0.287692 -0.00946682 -0.00852994 0.287692 0.24625 0.303695 0.287692 0.588267 0.560468 0.287692 0.24625 0.560468 0.478299 0.588267 0.560468 0.817187 0.777895 0.560468 0.478299 0.777895 0.664732 0.817187 0.777895 0.965028 0.918811 0.777895 0.664732 0.918811 0.785505 0.965028 0.918811 1.01624 0.967558 0.918811 0.785505 0.967558 0.827262 1.01624 0.967558 0.965024 0.918828 0.967558 0.827262 0.918828 0.785482 0.965024 0.918828 0.817322 0.777938 0.918828 0.785482 0.777938 0.664706 0.817322 0.777938 0.58859 0.560452 0.777938 0.664706 0.560452 0.478245 0.58859 0.560452 0.303762 0.287862 0.560452 0.478245 0.287862 0.24608 0.303762 0.287862 -0.0156586 -0.00980746 0.287862 0.24608 -0.00980746 -0.00868454 -0.00852994 -0.00460017 0.24625 0.180424 -0.00460017 -0.00155376 0.180424 0.0964282 0.24625 0.180424 0.478299 0.35067 0.180424 0.0964282 0.35067 0.18803 0.478299 0.35067 0.664732 0.487905 0.35067 0.18803 0.487905 0.262666 0.664732 0.487905 0.785505 0.57678 0.487905 0.262666 0.57678 0.311148 0.785505 0.57678 0.827262 0.607485 0.57678 0.311148 0.607485 0.327913 0.827262 0.607485 0.785482 0.576738 0.607485 0.327913 0.576738 0.311095 0.785482 0.576738 0.664706 0.487826 0.576738 0.311095 0.487826 0.262564 0.664706 0.487826 0.478245 0.350569 0.487826 0.262564 0.350569 0.187918 0.478245 0.350569 0.24608 0.18022 0.350569 0.187918 0.18022 0.0962552 0.24608 0.18022 -0.00868454 -0.00492772 0.18022 0.0962552 -0.00492772 -0.00167854 -0.00155376 -0.000316046 0.0964282 0.000779435 -0.000316046 -0.00198937 0.000779435 -0.0977071 0.0964282 0.000779435 0.18803 0.00487824 0.000779435 -0.0977071 0.00487824 -0.181314 0.18803 0.00487824 0.262666 0.0100052 0.00487824 -0.181314 0.0100052 -0.245623 0.262666 0.0100052 0.311148 0.0138022 0.0100052 -0.245623 0.0138022 -0.286383 0.311148 0.0138022 0.327913 0.0151674 0.0138022 -0.286383 0.0151674 -0.300365 0.327913 0.0151674 0.311095 0.0137453 0.0151674 -0.300365 0.0137453 -0.286436 0.311095 0.0137453 0.262564 0.00990745 0.0137453 -0.286436 0.00990745 -0.245711 0.262564 0.00990745 0.187918 0.00477363 0.00990745 -0.245711 0.00477363 -0.181397 0.187918 0.00477363 0.0962552 0.00066843 0.00477363 -0.181397 0.00066843 -0.097761 0.0962552 0.00066843 -0.00167854 -0.000435223 0.00066843 -0.097761 -0.000435223 -0.00206211 -0.00198937 -0.00561598 -0.0977071 -0.188804 -0.00561598 -0.00965778 -0.188804 -0.261889 -0.0977071 -0.188804 -0.181314 -0.351853 -0.188804 -0.261889 -0.351853 -0.488566 -0.181314 -0.351853 -0.245623 -0.478906 -0.351853 -0.488566 -0.478906 -0.665938 -0.245623 -0.478906 -0.286383 -0.559784 -0.478906 -0.665938 -0.559784 -0.778849 -0.286383 -0.559784 -0.300365 -0.587572 -0.559784 -0.778849 -0.587572 -0.81761 -0.300365 -0.587572 -0.286436 -0.559839 -0.587572 -0.81761 -0.559839 -0.7789 -0.286436 -0.559839 -0.245711 -0.478985 -0.559839 -0.7789 -0.478985 -0.666015 -0.245711 -0.478985 -0.181397 -0.351902 -0.478985 -0.666015 -0.351902 -0.48862 -0.181397 -0.351902 -0.097761 -0.188802 -0.351902 -0.48862 -0.188802 -0.261924 -0.097761 -0.188802 -0.00206211 -0.00554672 -0.188802 -0.261924 -0.00554672 -0.00938196 -0.00965778 -0.0111741 -0.261889 -0.309334 -0.0111741 -0.016653 -0.309334 -0.32439 -0.261889 -0.309334 -0.488566 -0.576126 -0.309334 -0.32439 -0.576126 -0.606501 -0.488566 -0.576126 -0.665938 -0.786315 -0.576126 -0.606501 -0.786315 -0.827468 -0.665938 -0.786315 -0.778849 -0.920161 -0.786315 -0.827468 -0.920161 -0.968639 -0.778849 -0.920161 -0.81761 -0.96611 -0.920161 -0.968639 -0.96611 -1.01699 -0.81761 -0.96611 -0.7789 -0.920263 -0.96611 -1.01699 -0.920263 -0.968695 -0.7789 -0.920263 -0.666015 -0.786478 -0.920263 -0.968695 -0.786478 -0.82773 -0.666015 -0.786478 -0.48862 -0.576277 -0.786478 -0.82773 -0.576277 -0.606609 -0.48862 -0.576277 -0.261924 -0.309165 -0.576277 -0.606609 -0.309165 -0.324676 -0.261924 -0.309165 -0.00938196 -0.011161 -0.309165 -0.324676 -0.011161 -0.0149525 
SCALARS pressure_error double 1
LOOKUP_TABLE default