# vtk DataFile Version 3.0
#This file was generated by the deal.II library on 2026/6/8 at 18:01:57
ASCII
DATASET UNSTRUCTURED_GRID

POINTS 25600 double
0 0 0
0.0125 0 0
0 0.0125 0
0.0125 0.0125 0
0.0125 0 0
0.025 0 0
0.0125 0.0125 0
0.025 0.0125 0
0 0.0125 0
0.0125 0.0125 0
0 0.025 0
0.0125 0.025 0
0.0125 0.0125 0
0.025 0.0125 0
0.0125 0.025 0
0.025 0.025 0
0.025 0 0
0.0375 0 0
0.025 0.0125 0
0.0375 0.0125 0
0.0375 0 0
0.05 0 0
0.0375 0.0125 0
0.05 0.0125 0
0.025 0.0125 0
0.0375 0.0125 0
0.025 0.025 0
0.0375 0.025 0
0.0375 0.0125 0
0.05 0.0125 0
0.0375 0.025 0
0.05 0.025 0
0 0.025 0
0.0125 0.025 0
0 0.0375 0
0.0125 0.0375 0
0.0125 0.025 0
0.025 0.025 0
0.0125 0.0375 0
0.025 0.0375 0
0 0.0375 0
0.0125 0.0375 0
0 0.05 0
0.0125 0.05 0
0.0125 0.0375 0
0.025 0.0375 0
0.0125 0.05 0
0.025 0.05 0
0.025 0.025 0
0.0375 0.025 0
0.025 0.0375 0
0.0375 0.0375 0
0.0375 0.025 0
0.05 0.025 0
0.0375 0.0375 0
0.05 0.0375 0
0.025 0.0375 0
0.0375 0.0375 0
0.025 0.05 0
0.0375 0.05 0
0.0375 0.0375 0
0.05 0.0375 0
0.0375 0.05 0
0.05 0.05 0
0.05 0 0
0.0625 0 0
0.05 0.0125 0
0.0625 0.0125 0
0.0625 0 0
0.075 0 0
0.0625 0.0125 0
0.075 0.0125 0
0.05 0.0125 0
0.0625 0.0125 0
0.05 0.025 0
0.0625 0.025 0
0.0625 0.0125 0
0.075 0.0125 0
0.0625 0.025 0
0.075 0.025 0
0.075 0 0
0.0875 0 0
0.075 0.0125 0
0.0875 0.0125 0
0.0875 0 0
0.1 0 0
0.0875 0.0125 0
0.1 0.0125 0
0.075 0.0125 0
0.0875 0.0125 0
0.075 0.025 0
0.0875 0.025 0
0.0875 0.0125 0
0.1 0.0125 0
0.0875 0.025 0
0.1 0.025 0
0.05 0.025 0
0.0625 0.025 0
0.05 0.0375 0
0.0625 0.0375 0
0.0625 0.025 0
0.075 0.025 0
0.0625 0.0375 0
0.075 0.0375 0
0.05 0.0375 0
0.0625 0.0375 0
0.05 0.05 0
0.0625 0.05 0
0.0625 0.0375 0
0.075 0.0375 0
0.0625 0.05 0
0.075 0.05 0
0.075 0.025 0
0.0875 0.025 0
0.075 0.0375 0
0.0875 0.0375 0
0.0875 0.025 0
0.1 0.025 0
0.0875 0.0375 0
0.1 0.0375 0
0.075 0.0375 0
0.0875 0.0375 0
0.075 0.05 0
0.0875 0.05 0
0.0875 0.0375 0
0.1 0.0375 0
0.0875 0.05 0
0.1 0.05 0
0 0.05 0
0.0125 0.05 0
0 0.0625 0
0.0125 0.0625 0
0.0125 0.05 0
0.025 0.05 0
0.0125 0.0625 0
0.025 0.0625 0
0 0.0625 0
0.0125 0.0625 0
0 0.075 0
0.0125 0.075 0
0.0125 0.0625 0
0.025 0.0625 0
0.0125 0.075 0
0.025 0.075 0
0.025 0.05 0
0.0375 0.05 0
0.025 0.0625 0
0.0375 0.0625 0
0.0375 0.05 0
0.05 0.05 0
0.0375 0.0625 0
0.05 0.0625 0
0.025 0.0625 0
0.0375 0.0625 0
0.025 0.075 0
0.0375 0.075 0
0.0375 0.0625 0
0.05 0.0625 0
0.0375 0.075 0
0.05 0.075 0
0 0.075 0
0.0125 0.075 0
0 0.0875 0
0.0125 0.0875 0
0.0125 0.075 0
0.025 0.075 0
0.0125 0.0875 0
0.025 0.0875 0
0 0.0875 0
0.0125 0.0875 0
0 0.1 0
0.0125 0.1 0
0.0125 0.0875 0
0.025 0.0875 0
0.0125 0.1 0
0.025 0.1 0
0.025 0.075 0
0.0375 0.075 0
0.025 0.0875 0
0.0375 0.0875 0
0.0375 0.075 0
0.05 0.075 0
0.0375 0.0875 0
0.05 0.0875 0
0.025 0.0875 0
0.0375 0.0875 0
0.025 0.1 0
0.0375 0.1 0
0.0375 0.0875 0
0.05 0.0875 0
0.0375 0.1 0
0.05 0.1 0
0.05 0.05 0
0.0625 0.05 0
0.05 0.0625 0
0.0625 0.0625 0
0.0625 0.05 0
0.075 0.05 0
0.0625 0.0625 0
0.075 0.0625 0
0.05 0.0625 0
0.0625 0.0625 0
0.05 0.075 0
0.0625 0.075 0
0.0625 0.0625 0
0.075 0.0625 0
0.0625 0.075 0
0.075 0.075 0
0.075 0.05 0
0.0875 0.05 0
0.075 0.0625 0
0.0875 0.0625 0
0.0875 0.05 0
0.1 0.05 0
0.0875 0.0625 0
0.1 0.0625 0
0.075 0.0625 0
0.0875 0.0625 0
0.075 0.075 0
0.0875 0.075 0
0.0875 0.0625 0
0.1 0.0625 0
0.0875 0.075 0
0.1 0.075 0
0.05 0.075 0
0.0625 0.075 0
0.05 0.0875 0
0.0625 0.0875 0
0.0625 0.075 0
0.075 0.075 0
0.0625 0.0875 0
0.075 0.0875 0
0.05 0.0875 0
0.0625 0.0875 0
0.05 0.1 0
0.0625 0.1 0
0.0625 0.0875 0
0.075 0.0875 0
0.0625 0.1 0
0.075 0.1 0
0.075 0.075 0
0.0875 0.075 0
0.075 0.0875 0
0.0875 0.0875 0
0.0875 0.075 0
0.1 0.075 0
0.0875 0.0875 0
0.1 0.0875 0
0.075 0.0875 0
0.0875 0.0875 0
0.075 0.1 0
0.0875 0.1 0
0.0875 0.0875 0
0.1 0.0875 0
0.0875 0.1 0
0.1 0.1 0
0.1 0 0
0.1125 0 0
0.1 0.0125 0
0.1125 0.0125 0
0.1125 0 0
0.125 0 0
0.1125 0.0125 0
0.125 0.0125 0
0.1 0.0125 0
0.1125 0.0125 0
0.1 0.025 0
0.1125 0.025 0
0.1125 0.0125 0
0.125 0.0125 0
0.1125 0.025 0
0.125 0.025 0
0.125 0 0
0.1375 0 0
0.125 0.0125 0
0.1375 0.0125 0
0.1375 0 0
0.15 0 0
0.1375 0.0125 0
0.15 0.0125 0
0.125 0.0125 0
0.1375 0.0125 0
0.125 0.025 0
0.1375 0.025 0
0.1375 0.0125 0
0.15 0.0125 0
0.1375 0.025 0
0.15 0.025 0
0.1 0.025 0
0.1125 0.025 0
0.1 0.0375 0
0.1125 0.0375 0
0.1125 0.025 0
0.125 0.025 0
0.1125 0.0375 0
0.125 0.0375 0
0.1 0.0375 0
0.1125 0.0375 0
0.1 0.05 0
0.1125 0.05 0
0.1125 0.0375 0
0.125 0.0375 0
0.1125 0.05 0
0.125 0.05 0
0.125 0.025 0
0.1375 0.025 0
0.125 0.0375 0
0.1375 0.0375 0
0.1375 0.025 0
0.15 0.025 0
0.1375 0.0375 0
0.15 0.0375 0
0.125 0.0375 0
0.1375 0.0375 0
0.125 0.05 0
0.1375 0.05 0
0.1375 0.0375 0
0.15 0.0375 0
0.1375 0.05 0
0.15 0.05 0
0.15 0 0
0.1625 0 0
0.15 0.0125 0
0.1625 0.0125 0
0.1625 0 0
0.175 0 0
0.1625 0.0125 0
0.175 0.0125 0
0.15 0.0125 0
0.1625 0.0125 0
0.15 0.025 0
0.1625 0.025 0
0.1625 0.0125 0
0.175 0.0125 0
0.1625 0.025 0
0.175 0.025 0
0.175 0 0
0.1875 0 0
0.175 0.0125 0
0.1875 0.0125 0
0.1875 0 0
0.2 0 0
0.1875 0.0125 0
0.2 0.0125 0
0.175 0.0125 0
0.1875 0.0125 0
0.175 0.025 0
0.1875 0.025 0
0.1875 0.0125 0
0.2 0.0125 0
0.1875 0.025 0
0.2 0.025 0
0.15 0.025 0
0.1625 0.025 0
0.15 0.0375 0
0.1625 0.0375 0
0.1625 0.025 0
0.175 0.025 0
0.1625 0.0375 0
0.175 0.0375 0
0.15 0.0375 0
0.1625 0.0375 0
0.15 0.05 0
0.1625 0.05 0
0.1625 0.0375 0
0.175 0.0375 0
0.1625 0.05 0
0.175 0.05 0
0.175 0.025 0
0.1875 0.025 0
0.175 0.0375 0
0.1875 0.0375 0
0.1875 0.025 0
0.2 0.025 0
0.1875 0.0375 0
0.2 0.0375 0
0.175 0.0375 0
0.1875 0.0375 0
0.175 0.05 0
0.1875 0.05 0
0.1875 0.0375 0
0.2 0.0375 0
0.1875 0.05 0
0.2 0.05 0
0.1 0.05 0
0.1125 0.05 0
0.1 0.0625 0
0.1125 0.0625 0
0.1125 0.05 0
0.125 0.05 0
0.1125 0.0625 0
0.125 0.0625 0
0.1 0.0625 0
0.1125 0.0625 0
0.1 0.075 0
0.1125 0.075 0
0.1125 0.0625 0
0.125 0.0625 0
0.1125 0.075 0
0.125 0.075 0
0.125 0.05 0
0.1375 0.05 0
0.125 0.0625 0
0.1375 0.0625 0
0.1375 0.05 0
0.15 0.05 0
0.1375 0.0625 0
0.15 0.0625 0
0.125 0.0625 0
0.1375 0.0625 0
0.125 0.075 0
0.1375 0.075 0
0.1375 0.0625 0
0.15 0.0625 0
0.1375 0.075 0
0.15 0.075 0
0.1 0.075 0
0.1125 0.075 0
0.1 0.0875 0
0.1125 0.0875 0
0.1125 0.075 0
0.125 0.075 0
0.1125 0.0875 0
0.125 0.0875 0
0.1 0.0875 0
0.1125 0.0875 0
0.1 0.1 0
0.1125 0.1 0
0.1125 0.0875 0
0.125 0.0875 0
0.1125 0.1 0
0.125 0.1 0
0.125 0.075 0
0.1375 0.075 0
0.125 0.0875 0
0.1375 0.0875 0
0.1375 0.075 0
0.15 0.075 0
0.1375 0.0875 0
0.15 0.0875 0
0.125 0.0875 0
0.1375 0.0875 0
0.125 0.1 0
0.1375 0.1 0
0.1375 0.0875 0
0.15 0.0875 0
0.1375 0.1 0
0.15 0.1 0
0.15 0.05 0
0.1625 0.05 0
0.15 0.0625 0
0.1625 0.0625 0
0.1625 0.05 0
0.175 0.05 0
0.1625 0.0625 0
0.175 0.0625 0
0.15 0.0625 0
0.1625 0.0625 0
0.15 0.075 0
0.1625 0.075 0
0.1625 0.0625 0
0.175 0.0625 0
0.1625 0.075 0
0.175 0.075 0
0.175 0.05 0
0.1875 0.05 0
0.175 0.0625 0
0.1875 0.0625 0
0.1875 0.05 0
0.2 0.05 0
0.1875 0.0625 0
0.2 0.0625 0
0.175 0.0625 0
0.1875 0.0625 0
0.175 0.075 0
0.1875 0.075 0
0.1875 0.0625 0
0.2 0.0625 0
0.1875 0.075 0
0.2 0.075 0
0.15 0.075 0
0.1625 0.075 0
0.15 0.0875 0
0.1625 0.0875 0
0.1625 0.075 0
0.175 0.075 0
0.1625 0.0875 0
0.175 0.0875 0
0.15 0.0875 0
0.1625 0.0875 0
0.15 0.1 0
0.1625 0.1 0
0.1625 0.0875 0
0.175 0.0875 0
0.1625 0.1 0
0.175 0.1 0
0.175 0.075 0
0.1875 0.075 0
0.175 0.0875 0
0.1875 0.0875 0
0.1875 0.075 0
0.2 0.075 0
0.1875 0.0875 0
0.2 0.0875 0
0.175 0.0875 0
0.1875 0.0875 0
0.175 0.1 0
0.1875 0.1 0
0.1875 0.0875 0
0.2 0.0875 0
0.1875 0.1 0
0.2 0.1 0
0 0.1 0
0.0125 0.1 0
0 0.1125 0
0.0125 0.1125 0
0.0125 0.1 0
0.025 0.1 0
0.0125 0.1125 0
0.025 0.1125 0
0 0.1125 0
0.0125 0.1125 0
0 0.125 0
0.0125 0.125 0
0.0125 0.1125 0
0.025 0.1125 0
0.0125 0.125 0
0.025 0.125 0
0.025 0.1 0
0.0375 0.1 0
0.025 0.1125 0
0.0375 0.1125 0
0.0375 0.1 0
0.05 0.1 0
0.0375 0.1125 0
0.05 0.1125 0
0.025 0.1125 0
0.0375 0.1125 0
0.025 0.125 0
0.0375 0.125 0
0.0375 0.1125 0
0.05 0.1125 0
0.0375 0.125 0
0.05 0.125 0
0 0.125 0
0.0125 0.125 0
0 0.1375 0
0.0125 0.1375 0
0.0125 0.125 0
0.025 0.125 0
0.0125 0.1375 0
0.025 0.1375 0
0 0.1375 0
0.0125 0.1375 0
0 0.15 0
0.0125 0.15 0
0.0125 0.1375 0
0.025 0.1375 0
0.0125 0.15 0
0.025 0.15 0
0.025 0.125 0
0.0375 0.125 0
0.025 0.1375 0
0.0375 0.1375 0
0.0375 0.125 0
0.05 0.125 0
0.0375 0.1375 0
0.05 0.1375 0
0.025 0.1375 0
0.0375 0.1375 0
0.025 0.15 0
0.0375 0.15 0
0.0375 0.1375 0
0.05 0.1375 0
0.0375 0.15 0
0.05 0.15 0
0.05 0.1 0
0.0625 0.1 0
0.05 0.1125 0
0.0625 0.1125 0
0.0625 0.1 0
0.075 0.1 0
0.0625 0.1125 0
0.075 0.1125 0
0.05 0.1125 0
0.0625 0.1125 0
0.05 0.125 0
0.0625 0.125 0
0.0625 0.1125 0
0.075 0.1125 0
0.0625 0.125 0
0.075 0.125 0
0.075 0.1 0
0.0875 0.1 0
0.075 0.1125 0
0.0875 0.1125 0
0.0875 0.1 0
0.1 0.1 0
0.0875 0.1125 0
0.1 0.1125 0
0.075 0.1125 0
0.0875 0.1125 0
0.075 0.125 0
0.0875 0.125 0
0.0875 0.1125 0
0.1 0.1125 0
0.0875 0.125 0
0.1 0.125 0
0.05 0.125 0
0.0625 0.125 0
0.05 0.1375 0
0.0625 0.1375 0
0.0625 0.125 0
0.075 0.125 0
0.0625 0.1375 0
0.075 0.1375 0
0.05 0.1375 0
0.0625 0.1375 0
0.05 0.15 0
0.0625 0.15 0
0.0625 0.1375 0
0.075 0.1375 0
0.0625 0.15 0
0.075 0.15 0
0.075 0.125 0
0.0875 0.125 0
0.075 0.1375 0
0.0875 0.1375 0
0.0875 0.125 0
0.1 0.125 0
0.0875 0.1375 0
0.1 0.1375 0
0.075 0.1375 0
0.0875 0.1375 0
0.075 0.15 0
0.0875 0.15 0
0.0875 0.1375 0
0.1 0.1375 0
0.0875 0.15 0
0.1 0.15 0
0 0.15 0
0.0125 0.15 0
0 0.1625 0
0.0125 0.1625 0
0.0125 0.15 0
0.025 0.15 0
0.0125 0.1625 0
0.025 0.1625 0
0 0.1625 0
0.0125 0.1625 0
0 0.175 0
0.0125 0.175 0
0.0125 0.1625 0
0.025 0.1625 0
0.0125 0.175 0
0.025 0.175 0
0.025 0.15 0
0.0375 0.15 0
0.025 0.1625 0
0.0375 0.1625 0
0.0375 0.15 0
0.05 0.15 0
0.0375 0.1625 0
0.05 0.1625 0
0.025 0.1625 0
0.0375 0.1625 0
0.025 0.175 0
0.0375 0.175 0
0.0375 0.1625 0
0.05 0.1625 0
0.0375 0.175 0
0.05 0.175 0
0 0.175 0
0.0125 0.175 0
0 0.1875 0
0.0125 0.1875 0
0.0125 0.175 0
0.025 0.175 0
0.0125 0.1875 0
0.025 0.1875 0
0 0.1875 0
0.0125 0.1875 0
0 0.2 0
0.0125 0.2 0
0.0125 0.1875 0
0.025 0.1875 0
0.0125 0.2 0
0.025 0.2 0
0.025 0.175 0
0.0375 0.175 0
0.025 0.1875 0
0.0375 0.1875 0
0.0375 0.175 0
0.05 0.175 0
0.0375 0.1875 0
0.05 0.1875 0
0.025 0.1875 0
0.0375 0.1875 0
0.025 0.2 0
[...]
POINT_DATA 25600
VECTORS velocity double
0 0 0
0.0392598 0 0
0 -0.0392598 0
0.0392277 -0.0392291 0
0.0392598 0 0
0.0784591 0 0
0.0392277 -0.0392291 0
0.0783935 -0.0391378 0
0 -0.0392598 0
0.0392277 -0.0392291 0
0 -0.0784591 0
0.0391367 -0.0783959 0
0.0392277 -0.0392291 0
0.0783935 -0.0391378 0
0.0391367 -0.0783959 0
0.0782124 -0.0782141 0
0.0784591 0 0
0.117537 0 0
0.0783935 -0.0391378 0
0.117439 -0.0389875 0
0.117537 0 0
0.156434 0 0
0.117439 -0.0389875 0
0.156305 -0.0387778 0
0.0783935 -0.0391378 0
0.117439 -0.0389875 0
0.0782124 -0.0782141 0
0.11717 -0.0779155 0
0.117439 -0.0389875 0
0.156305 -0.0387778 0
0.11717 -0.0779155 0
0.15595 -0.0774979 0
0 -0.0784591 0
0.0391367 -0.0783959 0
0 -0.117537 0
0.0389858 -0.117442 0
0.0391367 -0.0783959 0
0.0782124 -0.0782141 0
0.0389858 -0.117442 0
0.0779123 -0.117172 0
0 -0.117537 0
0.0389858 -0.117442 0
0 -0.156434 0
0.0387757 -0.156308 0
0.0389858 -0.117442 0
0.0779123 -0.117172 0
0.0387757 -0.156308 0
0.0774945 -0.155953 0
0.0782124 -0.0782141 0
0.11717 -0.0779155 0
0.0779123 -0.117172 0
0.116723 -0.116727 0
0.11717 -0.0779155 0
0.15595 -0.0774979 0
0.116723 -0.116727 0
0.155357 -0.116102 0
0.0779123 -0.117172 0
0.116723 -0.116727 0
0.0774945 -0.155953 0
0.116098 -0.155362 0
0.116723 -0.116727 0
0.155357 -0.116102 0
0.116098 -0.155362 0
0.154525 -0.154529 0
0.156434 0 0
0.19509 0 0
0.156305 -0.0387778 0
0.194933 -0.0385082 0
0.19509 0 0
0.233445 0 0
0.194933 -0.0385082 0
0.233263 -0.0381787 0
0.156305 -0.0387778 0
0.194933 -0.0385082 0
0.15595 -0.0774979 0
0.194492 -0.07696 0
0.194933 -0.0385082 0
0.233263 -0.0381787 0
0.194492 -0.07696 0
0.232736 -0.0763018 0
0.233445 0 0
0.27144 0 0
0.233263 -0.0381787 0
0.271235 -0.0377898 0
0.27144 0 0
0.309017 0 0
0.271235 -0.0377898 0
0.308789 -0.0373421 0
0.233263 -0.0381787 0
0.271235 -0.0377898 0
0.232736 -0.0763018 0
0.27062 -0.0755242 0
0.271235 -0.0377898 0
0.308789 -0.0373421 0
0.27062 -0.0755242 0
0.308086 -0.074629 0
0.15595 -0.0774979 0
0.194492 -0.07696 0
0.155357 -0.116102 0
0.193753 -0.115295 0
0.194492 -0.07696 0
0.232736 -0.0763018 0
0.193753 -0.115295 0
0.231849 -0.114308 0
0.155357 -0.116102 0
0.193753 -0.115295 0
0.154525 -0.154529 0
0.192711 -0.153452 0
0.193753 -0.115295 0
0.231849 -0.114308 0
0.192711 -0.153452 0
0.230598 -0.152135 0
0.232736 -0.0763018 0
0.27062 -0.0755242 0
0.231849 -0.114308 0
0.269586 -0.113141 0
0.27062 -0.0755242 0
0.308086 -0.074629 0
0.269586 -0.113141 0
0.306905 -0.111799 0
0.231849 -0.114308 0
0.269586 -0.113141 0
0.230598 -0.152135 0
0.268127 -0.150581 0
0.269586 -0.113141 0
0.306905 -0.111799 0
0.268127 -0.150581 0
0.305241 -0.148793 0
0 -0.156434 0
0.0387757 -0.156308 0
0 -0.19509 0
0.0385061 -0.194935 0
0.0387757 -0.156308 0
0.0774945 -0.155953 0
0.0385061 -0.194935 0
0.076957 -0.194496 0
0 -0.19509 0
0.0385061 -0.194935 0
0 -0.233445 0
0.038177 -0.233264 0
0.0385061 -0.194935 0
0.076957 -0.194496 0
0.038177 -0.233264 0
0.0762995 -0.232742 0
0.0774945 -0.155953 0
0.116098 -0.155362 0
0.076957 -0.194496 0
0.115292 -0.193759 0
0.116098 -0.155362 0
0.154525 -0.154529 0
0.115292 -0.193759 0
0.153449 -0.192716 0
0.076957 -0.194496 0
0.115292 -0.193759 0
0.0762995 -0.232742 0
0.114305 -0.231856 0
0.115292 -0.193759 0
0.153449 -0.192716 0
0.114305 -0.231856 0
0.152132 -0.230604 0
0 -0.233445 0
0.038177 -0.233264 0
0 -0.27144 0
0.0377885 -0.271235 0
0.038177 -0.233264 0
0.0762995 -0.232742 0
0.0377885 -0.271235 0
0.0755229 -0.270628 0
0 -0.27144 0
0.0377885 -0.271235 0
0 -0.309017 0
0.0373414 -0.308789 0
0.0377885 -0.271235 0
0.0755229 -0.270628 0
0.0373414 -0.308789 0
0.0746284 -0.308096 0
0.0762995 -0.232742 0
0.114305 -0.231856 0
0.0755229 -0.270628 0
0.11314 -0.269594 0
0.114305 -0.231856 0
0.152132 -0.230604 0
0.11314 -0.269594 0
0.150579 -0.268133 0
0.0755229 -0.270628 0
0.11314 -0.269594 0
0.0746284 -0.308096 0
0.111798 -0.306913 0
0.11314 -0.269594 0
0.150579 -0.268133 0
0.111798 -0.306913 0
0.148792 -0.305247 0
0.154525 -0.154529 0
0.192711 -0.153452 0
0.153449 -0.192716 0
0.191366 -0.19137 0
0.192711 -0.153452 0
0.230598 -0.152135 0
0.191366 -0.19137 0
0.228985 -0.189725 0
0.153449 -0.192716 0
0.191366 -0.19137 0
0.152132 -0.230604 0
0.189721 -0.228989 0
0.191366 -0.19137 0
0.228985 -0.189725 0
0.189721 -0.228989 0
0.227015 -0.227019 0
0.230598 -0.152135 0
0.268127 -0.150581 0
0.228985 -0.189725 0
0.266249 -0.187785 0
0.268127 -0.150581 0
0.305241 -0.148793 0
0.266249 -0.187785 0
0.303101 -0.185556 0
0.228985 -0.189725 0
0.266249 -0.187785 0
0.227015 -0.227019 0
0.263958 -0.224698 0
0.266249 -0.187785 0
0.303101 -0.185556 0
0.263958 -0.224698 0
0.300493 -0.222031 0
0.152132 -0.230604 0
0.189721 -0.228989 0
0.150579 -0.268133 0
0.187782 -0.266253 0
0.189721 -0.228989 0
0.227015 -0.227019 0
0.187782 -0.266253 0
0.224695 -0.263962 0
0.150579 -0.268133 0
0.187782 -0.266253 0
0.148792 -0.305247 0
0.185553 -0.303106 0
0.187782 -0.266253 0
0.224695 -0.263962 0
0.185553 -0.303106 0
0.222028 -0.300498 0
0.227015 -0.227019 0
0.263958 -0.224698 0
0.224695 -0.263962 0
0.26126 -0.261264 0
0.263958 -0.224698 0
0.300493 -0.222031 0
0.26126 -0.261264 0
0.297423 -0.258165 0
0.224695 -0.263962 0
0.26126 -0.261264 0
0.222028 -0.300498 0
0.258161 -0.297428 0
0.26126 -0.261264 0
0.297423 -0.258165 0
0.258161 -0.297428 0
0.293895 -0.2939 0
0.309017 0 0
0.346117 0 0
0.308789 -0.0373421 0
0.345866 -0.0368366 0
0.346117 0 0
0.382683 0 0
0.345866 -0.0368366 0
0.382408 -0.0362741 0
0.308789 -0.0373421 0
0.345866 -0.0368366 0
0.308086 -0.074629 0
0.345076 -0.0736181 0
0.345866 -0.0368366 0
0.382408 -0.0362741 0
0.345076 -0.0736181 0
0.381532 -0.0724934 0
0.382683 0 0
0.41866 0 0
0.382408 -0.0362741 0
0.41836 -0.0356557 0
0.41866 0 0
0.45399 0 0
0.41836 -0.0356557 0
0.453666 -0.0349822 0
0.382408 -0.0362741 0
0.41836 -0.0356557 0
0.381532 -0.0724934 0
0.417399 -0.0712568 0
0.41836 -0.0356557 0
0.453666 -0.0349822 0
0.417399 -0.0712568 0
0.452622 -0.0699105 0
0.308086 -0.074629 0
0.345076 -0.0736181 0
0.306905 -0.111799 0
0.343749 -0.110284 0
0.345076 -0.0736181 0
0.381532 -0.0724934 0
0.343749 -0.110284 0
0.380062 -0.108598 0
0.306905 -0.111799 0
0.343749 -0.110284 0
0.305241 -0.148793 0
0.341882 -0.146776 0
0.343749 -0.110284 0
0.380062 -0.108598 0
0.341882 -0.146776 0
0.377996 -0.144533 0
0.381532 -0.0724934 0
0.417399 -0.0712568 0
0.380062 -0.108598 0
0.415788 -0.106746 0
0.417399 -0.0712568 0
0.452622 -0.0699105 0
0.415788 -0.106746 0
0.450872 -0.104729 0
0.380062 -0.108598 0
0.415788 -0.106746 0
0.377996 -0.144533 0
0.413527 -0.142068 0
0.415788 -0.106746 0
0.450872 -0.104729 0
0.413527 -0.142068 0
0.44842 -0.139384 0
0.45399 0 0
0.488621 0 0
0.453666 -0.0349822 0
0.488271 -0.0342549 0
0.488621 0 0
0.522499 0 0
0.488271 -0.0342549 0
0.522123 -0.0334748 0
0.453666 -0.0349822 0
0.488271 -0.0342549 0
0.452622 -0.0699105 0
0.487145 -0.0684566 0
0.488271 -0.0342549 0
0.522123 -0.0334748 0
0.487145 -0.0684566 0
0.520916 -0.0668973 0
0.522499 0 0
0.55557 0 0
0.522123 -0.0334748 0
0.555168 -0.0326432 0
0.55557 0 0
0.587785 0 0
0.555168 -0.0326432 0
0.587357 -0.0317613 0
0.522123 -0.0334748 0
0.555168 -0.0326432 0
0.520916 -0.0668973 0
0.553884 -0.0652351 0
0.555168 -0.0326432 0
0.587357 -0.0317613 0
0.553884 -0.0652351 0
0.585997 -0.0634725 0
0.452622 -0.0699105 0
0.487145 -0.0684566 0
0.450872 -0.104729 0
0.48526 -0.102551 0
0.487145 -0.0684566 0
0.520916 -0.0668973 0
0.48526 -0.102551 0
0.518899 -0.100215 0
0.450872 -0.104729 0
0.48526 -0.102551 0
0.44842 -0.139384 0
0.482621 -0.136486 0
0.48526 -0.102551 0
0.518899 -0.100215 0
0.482621 -0.136486 0
0.516078 -0.133378 0
0.520916 -0.0668973 0
0.553884 -0.0652351 0
0.518899 -0.100215 0
0.551738 -0.0977251 0
0.553884 -0.0652351 0
0.585997 -0.0634725 0
0.551738 -0.0977251 0
0.583727 -0.0950847 0
0.518899 -0.100215 0
0.551738 -0.0977251 0
0.516078 -0.133378 0
0.548739 -0.130064 0
0.551738 -0.0977251 0
0.583727 -0.0950847 0
0.548739 -0.130064 0
0.580554 -0.12655 0
0.305241 -0.148793 0
0.341882 -0.146776 0
0.303101 -0.185556 0
0.339485 -0.183041 0
0.341882 -0.146776 0
0.377996 -0.144533 0
0.339485 -0.183041 0
0.375346 -0.180245 0
0.303101 -0.185556 0
0.339485 -0.183041 0
0.300493 -0.222031 0
0.336565 -0.219023 0
0.339485 -0.183041 0
0.375346 -0.180245 0
0.336565 -0.219023 0
0.372119 -0.215678 0
0.377996 -0.144533 0
0.413527 -0.142068 0
0.375346 -0.180245 0
0.410628 -0.177171 0
0.413527 -0.142068 0
0.44842 -0.139384 0
0.410628 -0.177171 0
0.445277 -0.173825 0
0.375346 -0.180245 0
0.410628 -0.177171 0
0.372119 -0.215678 0
0.407098 -0.212001 0
0.410628 -0.177171 0
0.445277 -0.173825 0
0.407098 -0.212001 0
0.44145 -0.207997 0
0.300493 -0.222031 0
0.336565 -0.219023 0
0.297423 -0.258165 0
0.333128 -0.254668 0
0.336565 -0.219023 0
0.372119 -0.215678 0
0.333128 -0.254668 0
0.368319 -0.250779 0
0.297423 -0.258165 0
0.333128 -0.254668 0
0.293895 -0.2939 0
0.329177 -0.28992 0
0.333128 -0.254668 0
0.368319 -0.250779 0
0.329177 -0.28992 0
0.363951 -0.285493 0
0.372119 -0.215678 0
0.407098 -0.212001 0
0.368319 -0.250779 0
0.402942 -0.246503 0
0.407098 -0.212001 0
0.44145 -0.207997 0
0.402942 -0.246503 0
0.436943 -0.241848 0
0.368319 -0.250779 0
0.402942 -0.246503 0
0.363951 -0.285493 0
0.398164 -0.280626 0
0.402942 -0.246503 0
0.436943 -0.241848 0
0.398164 -0.280626 0
0.431762 -0.275327 0
0.44842 -0.139384 0
0.482621 -0.136486 0
0.445277 -0.173825 0
0.47924 -0.170211 0
0.482621 -0.136486 0
0.516078 -0.133378 0
0.47924 -0.170211 0
0.512463 -0.166335 0
0.445277 -0.173825 0
0.47924 -0.170211 0
0.44145 -0.207997 0
0.475121 -0.203673 0
0.47924 -0.170211 0
0.512463 -0.166335 0
0.475121 -0.203673 0
0.50806 -0.199035 0
0.516078 -0.133378 0
0.548739 -0.130064 0
0.512463 -0.166335 0
0.544896 -0.162202 0
0.548739 -0.130064 0
0.580554 -0.12655 0
0.544896 -0.162202 0
0.576489 -0.15782 0
0.512463 -0.166335 0
0.544896 -0.162202 0
0.50806 -0.199035 0
0.540214 -0.19409 0
0.544896 -0.162202 0
0.576489 -0.15782 0
0.540214 -0.19409 0
0.571535 -0.188847 0
0.44145 -0.207997 0
0.475121 -0.203673 0
0.436943 -0.241848 0
0.470271 -0.236821 0
0.475121 -0.203673 0
0.50806 -0.199035 0
0.470271 -0.236821 0
0.502873 -0.231428 0
0.436943 -0.241848 0
0.470271 -0.236821 0
0.431762 -0.275327 0
0.464695 -0.269603 0
0.470271 -0.236821 0
0.502873 -0.231428 0
0.464695 -0.269603 0
0.49691 -0.263464 0
0.50806 -0.199035 0
0.540214 -0.19409 0
0.502873 -0.231428 0
0.534699 -0.225679 0
0.540214 -0.19409 0
0.571535 -0.188847 0
0.534699 -0.225679 0
0.5657 -0.219582 0
0.502873 -0.231428 0
0.534699 -0.225679 0
0.49691 -0.263464 0
0.528359 -0.256919 0
0.534699 -0.225679 0
0.5657 -0.219582 0
0.528359 -0.256919 0
0.558993 -0.249978 0
0 -0.309017 0
0.0373414 -0.308789 0
0 -0.346117 0
0.0368363 -0.345868 0
0.0373414 -0.308789 0
0.0746284 -0.308096 0
0.0368363 -0.345868 0
0.0736181 -0.345087 0
0 -0.346117 0
0.0368363 -0.345868 0
0 -0.382683 0
0.0362741 -0.382412 0
0.0368363 -0.345868 0
0.0736181 -0.345087 0
0.0362741 -0.382412 0
0.0724937 -0.381545 0
0.0746284 -0.308096 0
0.111798 -0.306913 0
0.0736181 -0.345087 0
0.110283 -0.343757 0
0.111798 -0.306913 0
0.148792 -0.305247 0
0.110283 -0.343757 0
0.146775 -0.341888 0
0.0736181 -0.345087 0
0.110283 -0.343757 0
0.0724937 -0.381545 0
0.108598 -0.38007 0
0.110283 -0.343757 0
0.146775 -0.341888 0
0.108598 -0.38007 0
0.144532 -0.378002 0
0 -0.382683 0
0.0362741 -0.382412 0
0 -0.41866 0
0.0356559 -0.418366 0
0.0362741 -0.382412 0
0.0724937 -0.381545 0
0.0356559 -0.418366 0
0.0712573 -0.417412 0
0 -0.41866 0
0.0356559 -0.418366 0
0 -0.45399 0
0.0349826 -0.453674 0
0.0356559 -0.418366 0
0.0712573 -0.417412 0
0.0349826 -0.453674 0
0.069911 -0.452634 0
0.0724937 -0.381545 0
0.108598 -0.38007 0
0.0712573 -0.417412 0
0.106745 -0.415795 0
0.108598 -0.38007 0
0.144532 -0.378002 0
0.106745 -0.415795 0
0.142066 -0.413532 0
0.0712573 -0.417412 0
0.106745 -0.415795 0
0.069911 -0.452634 0
0.104728 -0.450878 0
0.106745 -0.415795 0
0.142066 -0.413532 0
0.104728 -0.450878 0
0.139383 -0.448425 0
0.148792 -0.305247 0
0.185553 -0.303106 0
0.146775 -0.341888 0
0.183038 -0.33949 0
0.185553 -0.303106 0
0.222028 -0.300498 0
0.183038 -0.33949 0
0.21902 -0.33657 0
0.146775 -0.341888 0
0.183038 -0.33949 0
0.144532 -0.378002 0
0.180242 -0.375351 0
0.183038 -0.33949 0
0.21902 -0.33657 0
0.180242 -0.375351 0
0.215675 -0.372124 0
0.222028 -0.300498 0
0.258161 -0.297428 0
0.21902 -0.33657 0
0.254664 -0.333133 0
0.258161 -0.297428 0
0.293895 -0.2939 0
0.254664 -0.333133 0
0.289915 -0.329182 0
0.21902 -0.33657 0
0.254664 -0.333133 0
0.215675 -0.372124 0
0.250775 -0.368324 0
0.254664 -0.333133 0
0.289915 -0.329182 0
0.250775 -0.368324 0
0.285489 -0.363956 0
0.144532 -0.378002 0
0.180242 -0.375351 0
0.142066 -0.413532 0
0.177169 -0.410634 0
0.180242 -0.375351 0
0.215675 -0.372124 0
0.177169 -0.410634 0
0.211998 -0.407104 0
0.142066 -0.413532 0
0.177169 -0.410634 0
0.139383 -0.448425 0
0.173822 -0.445283 0
0.177169 -0.410634 0
0.211998 -0.407104 0
0.173822 -0.445283 0
0.207994 -0.441456 0
0.215675 -0.372124 0
0.250775 -0.368324 0
0.211998 -0.407104 0
0.2465 -0.402947 0
0.250775 -0.368324 0
0.285489 -0.363956 0
0.2465 -0.402947 0
0.280622 -0.398169 0
0.211998 -0.407104 0
0.2465 -0.402947 0
0.207994 -0.441456 0
0.241845 -0.436949 0
0.2465 -0.402947 0
0.280622 -0.398169 0
0.241845 -0.436949 0
0.275323 -0.431768 0
0 -0.45399 0
0.0349826 -0.453674 0
0 -0.488621 0
0.0342554 -0.488281 0
0.0349826 -0.453674 0
0.069911 -0.452634 0
0.0342554 -0.488281 0
0.068457 -0.487157 0
0 -0.488621 0
0.0342554 -0.488281 0
0 -0.522499 0
0.0334754 -0.522134 0
0.0342554 -0.488281 0
0.068457 -0.487157 0
0.0334754 -0.522134 0
0.0668977 -0.520928 0
0.069911 -0.452634 0
0.104728 -0.450878 0
0.068457 -0.487157 0
0.10255 -0.485266 0
0.104728 -0.450878 0
0.139383 -0.448425 0
0.10255 -0.485266 0
0.136484 -0.482627 0
0.068457 -0.487157 0
0.10255 -0.485266 0
0.0668977 -0.520928 0
0.100214 -0.518905 0
0.10255 -0.485266 0
0.136484 -0.482627 0
0.100214 -0.518905 0
0.133376 -0.516084 0
0 -0.522499 0
0.0334754 -0.522134 0
0 -0.55557 0
0.0326438 -0.555181 0
0.0334754 -0.522134 0
0.0668977 -0.520928 0
0.0326438 -0.555181 0
0.0652353 -0.553895 0
0 -0.55557 0
0.0326438 -0.555181 0
0 -0.587785 0
0.0317619 -0.587371 0
0.0326438 -0.555181 0
0.0652353 -0.553895 0
0.0317619 -0.587371 0
0.0634726 -0.586007 0
0.0668977 -0.520928 0
0.100214 -0.518905 0
0.0652353 -0.553895 0
0.0977242 -0.551744 0
0.100214 -0.518905 0
0.133376 -0.516084 0
0.0977242 -0.551744 0
0.130062 -0.548745 0
0.0652353 -0.553895 0
0.0977242 -0.551744 0
0.0634726 -0.586007 0
0.0950838 -0.583732 0
0.0977242 -0.551744 0
0.130062 -0.548745 0
0.0950838 -0.583732 0
0.126549 -0.58056 0
0.139383 -0.448425 0
0.173822 -0.445283 0
0.136484 -0.482627 0
0.170208 -0.479246 0
0.173822 -0.445283 0
0.207994 -0.441456 0
0.170208 -0.479246 0
0.20367 -0.475127 0
0.136484 -0.482627 0
0.170208 -0.479246 0
0.133376 -0.516084 0
0.166333 -0.512469 0
0.170208 -0.479246 0
0.20367 -0.475127 0
0.166333 -0.512469 0
0.199033 -0.508066 0
0.207994 -0.441456 0
0.241845 -0.436949 0
0.20367 -0.475127 0
0.236818 -0.470276 0
0.241845 -0.436949 0
0.275323 -0.431768 0
0.236818 -0.470276 0
0.2696 -0.4647 0
0.20367 -0.475127 0
0.236818 -0.470276 0
0.199033 -0.508066 0
0.231425 -0.502878 0
0.236818 -0.470276 0
0.2696 -0.4647 0
0.231425 -0.502878 0
0.263461 -0.496916 0
0.133376 -0.516084 0
0.166333 -0.512469 0
0.130062 -0.548745 0
0.1622 -0.544903 0
0.166333 -0.512469 0
0.199033 -0.508066 0
0.1622 -0.544903 0
0.194088 -0.54022 0
0.130062 -0.548745 0
0.1622 -0.544903 0
0.126549 -0.58056 0
0.157818 -0.576495 0
0.1622 -0.544903 0
0.194088 -0.54022 0
0.157818 -0.576495 0
0.188845 -0.571542 0
0.199033 -0.508066 0
0.231425 -0.502878 0
0.194088 -0.54022 0
0.225676 -0.534705 0
0.231425 -0.502878 0
0.263461 -0.496916 0
0.225676 -0.534705 0
0.256916 -0.528365 0
0.194088 -0.54022 0
0.225676 -0.534705 0
0.188845 -0.571542 0
0.21958 -0.565706 0
0.225676 -0.534705 0
0.256916 -0.528365 0
0.21958 -0.565706 0
0.249975 -0.558999 0
0.293895 -0.2939 0
0.329177 -0.28992 0
0.289915 -0.329182 0
0.32472 -0.324724 0
0.329177 -0.28992 0
0.363951 -0.285493 0
0.32472 -0.324724 0
0.359023 -0.319766 0
0.289915 -0.329182 0
0.32472 -0.324724 0
0.285489 -0.363956 0
0.319762 -0.359028 0
0.32472 -0.324724 0
0.359023 -0.319766 0
0.319762 -0.359028 0
0.353542 -0.353546 0
0.363951 -0.285493 0
0.398164 -0.280626 0
0.359023 -0.319766 0
0.392773 -0.314315 0
0.398164 -0.280626 0
0.431762 -0.275327 0
0.392773 -0.314315 0
0.425916 -0.30838 0
0.359023 -0.319766 0
0.392773 -0.314315 0
0.353542 -0.353546 0
0.386776 -0.347519 0
0.392773 -0.314315 0
0.425916 -0.30838 0
0.386776 -0.347519 0
0.419413 -0.340957 0
0.285489 -0.363956 0
0.319762 -0.359028 0
0.280622 -0.398169 0
0.314311 -0.392778 0
0.319762 -0.359028 0
0.353542 -0.353546 0
0.314311 -0.392778 0
0.347515 -0.386781 0
0.280622 -0.398169 0
0.314311 -0.392778 0
0.275323 -0.431768 0
0.308376 -0.425921 0
0.314311 -0.392778 0
0.347515 -0.386781 0
0.308376 -0.425921 0
0.340953 -0.419418 0
0.353542 -0.353546 0
0.386776 -0.347519 0
0.347515 -0.386781 0
0.380183 -0.380187 0
0.386776 -0.347519 0
0.419413 -0.340957 0
0.380183 -0.380187 0
0.412264 -0.373008 0
0.347515 -0.386781 0
0.380183 -0.380187 0
0.340953 -0.419418 0
0.373004 -0.412269 0
0.380183 -0.380187 0
0.412264 -0.373008 0
0.373004 -0.412269 0
0.40448 -0.404484 0
0.431762 -0.275327 0
0.464695 -0.269603 0
0.425916 -0.30838 0
0.458403 -0.301969 0
0.464695 -0.269603 0
0.49691 -0.263464 0
0.458403 -0.301969 0
0.490182 -0.295093 0
0.425916 -0.30838 0
0.458403 -0.301969 0
0.419413 -0.340957 0
0.451404 -0.333869 0
0.458403 -0.301969 0
0.490182 -0.295093 0
0.451404 -0.333869 0
0.482698 -0.326267 0
0.49691 -0.263464 0
0.528359 -0.256919 0
0.490182 -0.295093 0
0.521205 -0.287763 0
0.528359 -0.256919 0
0.558993 -0.249978 0
0.521205 -0.287763 0
0.551425 -0.279989 0
0.490182 -0.295093 0
0.521205 -0.287763 0
0.482698 -0.326267 0
0.513248 -0.318162 0
0.521205 -0.287763 0
0.551425 -0.279989 0
0.513248 -0.318162 0
0.543006 -0.309567 0
0.419413 -0.340957 0
0.451404 -0.333869 0
0.412264 -0.373008 0
0.44371 -0.365255 0
0.451404 -0.333869 0
0.482698 -0.326267 0
0.44371 -0.365255 0
0.474471 -0.356938 0
0.412264 -0.373008 0
0.44371 -0.365255 0
0.40448 -0.404484 0
0.435331 -0.396076 0
0.44371 -0.365255 0
0.474471 -0.356938 0
0.435331 -0.396076 0
0.465512 -0.387058 0
0.482698 -0.326267 0
0.513248 -0.318162 0
0.474471 -0.356938 0
0.5045 -0.348071 0
0.513248 -0.318162 0
0.543006 -0.309567 0
0.5045 -0.348071 0
0.533751 -0.338668 0
0.474471 -0.356938 0
0.5045 -0.348071 0
0.465512 -0.387058 0
0.494974 -0.377443 0
0.5045 -0.348071 0
0.533751 -0.338668 0
0.494974 -0.377443 0
0.523672 -0.367246 0
0.275323 -0.431768 0
0.308376 -0.425921 0
0.2696 -0.4647 0
0.301966 -0.458408 0
0.308376 -0.425921 0
0.340953 -0.419418 0
0.301966 -0.458408 0
0.333865 -0.451409 0
0.2696 -0.4647 0
0.301966 -0.458408 0
0.263461 -0.496916 0
0.29509 -0.490187 0
0.301966 -0.458408 0
0.333865 -0.451409 0
0.29509 -0.490187 0
0.326264 -0.482704 0
0.340953 -0.419418 0
0.373004 -0.412269 0
0.333865 -0.451409 0
0.36525 -0.443715 0
0.373004 -0.412269 0
0.40448 -0.404484 0
0.36525 -0.443715 0
0.396072 -0.435336 0
0.333865 -0.451409 0
0.36525 -0.443715 0
0.326264 -0.482704 0
0.356934 -0.474476 0
0.36525 -0.443715 0
0.396072 -0.435336 0
0.356934 -0.474476 0
0.387054 -0.465516 0
0.263461 -0.496916 0
0.29509 -0.490187 0
0.256916 -0.528365 0
0.287759 -0.521211 0
0.29509 -0.490187 0
0.326264 -0.482704 0
0.287759 -0.521211 0
0.318159 -0.513253 0
0.256916 -0.528365 0
0.287759 -0.521211 0
0.249975 -0.558999 0
0.279986 -0.55143 0
0.287759 -0.521211 0
0.318159 -0.513253 0
0.279986 -0.55143 0
0.309564 -0.543012 0
0.326264 -0.482704 0
0.356934 -0.474476 0
0.318159 -0.513253 0
0.348067 -0.504505 0
0.356934 -0.474476 0
0.387054 -0.465516 0
0.348067 -0.504505 0
0.377439 -0.494979 0
0.318159 -0.513253 0
0.348067 -0.504505 0
0.309564 -0.543012 0
0.338665 -0.533756 0
0.348067 -0.504505 0
0.377439 -0.494979 0
0.338665 -0.533756 0
0.367243 -0.523677 0
0.40448 -0.404484 0
0.435331 -0.396076 0
0.396072 -0.435336 0
0.426282 -0.426287 0
0.435331 -0.396076 0
0.465512 -0.387058 0
0.426282 -0.426287 0
0.455835 -0.41658 0
0.396072 -0.435336 0
0.426282 -0.426287 0
0.387054 -0.465516 0