# vtk DataFile Version 3.0
#This file was generated by the deal.II library on 2026/6/8 at 18:01:02
ASCII
DATASET UNSTRUCTURED_GRID

POINTS 6400 double
0 0 0
0.025 0 0
0 0.025 0
0.025 0.025 0
0.025 0 0
0.05 0 0
0.025 0.025 0
0.05 0.025 0
0 0.025 0
0.025 0.025 0
0 0.05 0
0.025 0.05 0
0.025 0.025 0
0.05 0.025 0
0.025 0.05 0
0.05 0.05 0
0.05 0 0
0.075 0 0
0.05 0.025 0
0.075 0.025 0
0.075 0 0
0.1 0 0
0.075 0.025 0
0.1 0.025 0
0.05 0.025 0
0.075 0.025 0
0.05 0.05 0
0.075 0.05 0
0.075 0.025 0
0.1 0.025 0
0.075 0.05 0
0.1 0.05 0
0 0.05 0
0.025 0.05 0
0 0.075 0
0.025 0.075 0
0.025 0.05 0
0.05 0.05 0
0.025 0.075 0
0.05 0.075 0
0 0.075 0
0.025 0.075 0
0 0.1 0
0.025 0.1 0
0.025 0.075 0
0.05 0.075 0
0.025 0.1 0
0.05 0.1 0
0.05 0.05 0
0.075 0.05 0
0.05 0.075 0
0.075 0.075 0
0.075 0.05 0
0.1 0.05 0
0.075 0.075 0
0.1 0.075 0
0.05 0.075 0
0.075 0.075 0
0.05 0.1 0
0.075 0.1 0
0.075 0.075 0
0.1 0.075 0
0.075 0.1 0
0.1 0.1 0
0.1 0 0
0.125 0 0
0.1 0.025 0
0.125 0.025 0
0.125 0 0
0.15 0 0
0.125 0.025 0
0.15 0.025 0
0.1 0.025 0
0.125 0.025 0
0.1 0.05 0
0.125 0.05 0
0.125 0.025 0
0.15 0.025 0
0.125 0.05 0
0.15 0.05 0
0.15 0 0
0.175 0 0
0.15 0.025 0
0.175 0.025 0
0.175 0 0
0.2 0 0
0.175 0.025 0
0.2 0.025 0
0.15 0.025 0
0.175 0.025 0
0.15 0.05 0
0.175 0.05 0
0.175 0.025 0
0.2 0.025 0
0.175 0.05 0
0.2 0.05 0
0.1 0.05 0
0.125 0.05 0
0.1 0.075 0
0.125 0.075 0
0.125 0.05 0
0.15 0.05 0
0.125 0.075 0
0.15 0.075 0
0.1 0.075 0
0.125 0.075 0
0.1 0.1 0
0.125 0.1 0
0.125 0.075 0
0.15 0.075 0
0.125 0.1 0
0.15 0.1 0
0.15 0.05 0
0.175 0.05 0
0.15 0.075 0
0.175 0.075 0
0.175 0.05 0
0.2 0.05 0
0.175 0.075 0
0.2 0.075 0
0.15 0.075 0
0.175 0.075 0
0.15 0.1 0
0.175 0.1 0
0.175 0.075 0
0.2 0.075 0
0.175 0.1 0
0.2 0.1 0
0 0.1 0
0.025 0.1 0
0 0.125 0
0.025 0.125 0
0.025 0.1 0
0.05 0.1 0
0.025 0.125 0
0.05 0.125 0
0 0.125 0
0.025 0.125 0
0 0.15 0
0.025 0.15 0
0.025 0.125 0
0.05 0.125 0
0.025 0.15 0
0.05 0.15 0
0.05 0.1 0
0.075 0.1 0
0.05 0.125 0
0.075 0.125 0
0.075 0.1 0
0.1 0.1 0
0.075 0.125 0
0.1 0.125 0
0.05 0.125 0
0.075 0.125 0
0.05 0.15 0
0.075 0.15 0
0.075 0.125 0
0.1 0.125 0
0.075 0.15 0
0.1 0.15 0
0 0.15 0
0.025 0.15 0
0 0.175 0
0.025 0.175 0
0.025 0.15 0
0.05 0.15 0
0.025 0.175 0
0.05 0.175 0
0 0.175 0
0.025 0.175 0
0 0.2 0
0.025 0.2 0
0.025 0.175 0
0.05 0.175 0
0.025 0.2 0
0.05 0.2 0
0.05 0.15 0
0.075 0.15 0
0.05 0.175 0
0.075 0.175 0
0.075 0.15 0
0.1 0.15 0
0.075 0.175 0
0.1 0.175 0
0.05 0.175 0
0.075 0.175 0
0.05 0.2 0
0.075 0.2 0
0.075 0.175 0
0.1 0.175 0
0.075 0.2 0
0.1 0.2 0
0.1 0.1 0
0.125 0.1 0
0.1 0.125 0
0.125 0.125 0
0.125 0.1 0
0.15 0.1 0
0.125 0.125 0
0.15 0.125 0
0.1 0.125 0
0.125 0.125 0
0.1 0.15 0
0.125 0.15 0
0.125 0.125 0
0.15 0.125 0
0.125 0.15 0
0.15 0.15 0
0.15 0.1 0
0.175 0.1 0
0.15 0.125 0
0.175 0.125 0
0.175 0.1 0
0.2 0.1 0
0.175 0.125 0
0.2 0.125 0
0.15 0.125 0
0.175 0.125 0
0.15 0.15 0
0.175 0.15 0
0.175 0.125 0
0.2 0.125 0
0.175 0.15 0
0.2 0.15 0
0.1 0.15 0
0.125 0.15 0
0.1 0.175 0
0.125 0.175 0
0.125 0.15 0
0.15 0.15 0
0.125 0.175 0
0.15 0.175 0
0.1 0.175 0
0.125 0.175 0
0.1 0.2 0
0.125 0.2 0
0.125 0.175 0
0.15 0.175 0
0.125 0.2 0
0.15 0.2 0
0.15 0.15 0
0.175 0.15 0
0.15 0.175 0
0.175 0.175 0
0.175 0.15 0
0.2 0.15 0
0.175 0.175 0
0.2 0.175 0
0.15 0.175 0
0.175 0.175 0
0.15 0.2 0
0.175 0.2 0
0.175 0.175 0
0.2 0.175 0
0.175 0.2 0
0.2 0.2 0
0 0.2 0
0.025 0.2 0
0 0.225 0
0.025 0.225 0
0.025 0.2 0
0.05 0.2 0
0.025 0.225 0
0.05 0.225 0
0 0.225 0
0.025 0.225 0
0 0.25 0
0.025 0.25 0
0.025 0.225 0
0.05 0.225 0
0.025 0.25 0
0.05 0.25 0
0.05 0.2 0
0.075 0.2 0
0.05 0.225 0
0.075 0.225 0
0.075 0.2 0
0.1 0.2 0
0.075 0.225 0
0.1 0.225 0
0.05 0.225 0
0.075 0.225 0
0.05 0.25 0
0.075 0.25 0
0.075 0.225 0
0.1 0.225 0
0.075 0.25 0
0.1 0.25 0
0 0.25 0
0.025 0.25 0
0 0.275 0
0.025 0.275 0
0.025 0.25 0
0.05 0.25 0
0.025 0.275 0
0.05 0.275 0
0 0.275 0
0.025 0.275 0
0 0.3 0
0.025 0.3 0
0.025 0.275 0
0.05 0.275 0
0.025 0.3 0
0.05 0.3 0
0.05 0.25 0
0.075 0.25 0
0.05 0.275 0
0.075 0.275 0
0.075 0.25 0
0.1 0.25 0
0.075 0.275 0
0.1 0.275 0
0.05 0.275 0
0.075 0.275 0
0.05 0.3 0
0.075 0.3 0
0.075 0.275 0
0.1 0.275 0
0.075 0.3 0
0.1 0.3 0
0.1 0.2 0
0.125 0.2 0
0.1 0.225 0
0.125 0.225 0
0.125 0.2 0
0.15 0.2 0
0.125 0.225 0
0.15 0.225 0
0.1 0.225 0
0.125 0.225 0
0.1 0.25 0
0.125 0.25 0
0.125 0.225 0
0.15 0.225 0
0.125 0.25 0
0.15 0.25 0
0.15 0.2 0
0.175 0.2 0
0.15 0.225 0
0.175 0.225 0
0.175 0.2 0
0.2 0.2 0
0.175 0.225 0
0.2 0.225 0
0.15 0.225 0
0.175 0.225 0
0.15 0.25 0
0.175 0.25 0
0.175 0.225 0
0.2 0.225 0
0.175 0.25 0
0.2 0.25 0
0.1 0.25 0
0.125 0.25 0
0.1 0.275 0
0.125 0.275 0
0.125 0.25 0
0.15 0.25 0
0.125 0.275 0
0.15 0.275 0
0.1 0.275 0
0.125 0.275 0
0.1 0.3 0
0.125 0.3 0
0.125 0.275 0
0.15 0.275 0
0.125 0.3 0
0.15 0.3 0
0.15 0.25 0
0.175 0.25 0
0.15 0.275 0
0.175 0.275 0
0.175 0.25 0
0.2 0.25 0
0.175 0.275 0
0.2 0.275 0
0.15 0.275 0
0.175 0.275 0
0.15 0.3 0
0.175 0.3 0
0.175 0.275 0
0.2 0.275 0
0.175 0.3 0
0.2 0.3 0
0 0.3 0
0.025 0.3 0
0 0.325 0
0.025 0.325 0
0.025 0.3 0
0.05 0.3 0
0.025 0.325 0
0.05 0.325 0
0 0.325 0
0.025 0.325 0
0 0.35 0
0.025 0.35 0
0.025 0.325 0
0.05 0.325 0
0.025 0.35 0
0.05 0.35 0
0.05 0.3 0
0.075 0.3 0
0.05 0.325 0
0.075 0.325 0
0.075 0.3 0
0.1 0.3 0
0.075 0.325 0
0.1 0.325 0
0.05 0.325 0
0.075 0.325 0
0.05 0.35 0
0.075 0.35 0
0.075 0.325 0
0.1 0.325 0
0.075 0.35 0
0.1 0.35 0
0 0.35 0
0.025 0.35 0
0 0.375 0
0.025 0.375 0
0.025 0.35 0
0.05 0.35 0
0.025 0.375 0
0.05 0.375 0
0 0.375 0
0.025 0.375 0
0 0.4 0
0.025 0.4 0
0.025 0.375 0
0.05 0.375 0
0.025 0.4 0
0.05 0.4 0
0.05 0.35 0
0.075 0.35 0
0.05 0.375 0
0.075 0.375 0
0.075 0.35 0
0.1 0.35 0
0.075 0.375 0
0.1 0.375 0
0.05 0.375 0
0.075 0.375 0
0.05 0.4 0
0.075 0.4 0
0.075 0.375 0
0.1 0.375 0
0.075 0.4 0
0.1 0.4 0
0.1 0.3 0
0.125 0.3 0
0.1 0.325 0
0.125 0.325 0
0.125 0.3 0
0.15 0.3 0
0.125 0.325 0
0.15 0.325 0
0.1 0.325 0
0.125 0.325 0
0.1 0.35 0
0.125 0.35 0
0.125 0.325 0
0.15 0.325 0
0.125 0.35 0
0.15 0.35 0
0.15 0.3 0
0.175 0.3 0
0.15 0.325 0
0.175 0.325 0
0.175 0.3 0
0.2 0.3 0
0.175 0.325 0
0.2 0.325 0
0.15 0.325 0
0.175 0.325 0
0.15 0.35 0
0.175 0.35 0
0.175 0.325 0
0.2 0.325 0
0.175 0.35 0
0.2 0.35 0
0.1 0.35 0
0.125 0.35 0
0.1 0.375 0
0.125 0.375 0
0.125 0.35 0
0.15 0.35 0
0.125 0.375 0
0.15 0.375 0
0.1 0.375 0
0.125 0.375 0
0.1 0.4 0
0.125 0.4 0
0.125 0.375 0
0.15 0.375 0
0.125 0.4 0
0.15 0.4 0
0.15 0.35 0
0.175 0.35 0
0.15 0.375 0
0.175 0.375 0
0.175 0.35 0
0.2 0.35 0
0.175 0.375 0
0.2 0.375 0
0.15 0.375 0
0.175 0.375 0
0.15 0.4 0
0.175 0.4 0
0.175 0.375 0
0.2 0.375 0
0.175 0.4 0
0.2 0.4 0
0 0.4 0
0.025 0.4 0
0 0.425 0
0.025 0.425 0
0.025 0.4 0
0.05 0.4 0
0.025 0.425 0
0.05 0.425 0
0 0.425 0
0.025 0.425 0
0 0.45 0
0.025 0.45 0
0.025 0.425 0
0.05 0.425 0
0.025 0.45 0
0.05 0.45 0
0.05 0.4 0
0.075 0.4 0
0.05 0.425 0
0.075 0.425 0
0.075 0.4 0
0.1 0.4 0
0.075 0.425 0
0.1 0.425 0
0.05 0.425 0
0.075 0.425 0
0.05 0.45 0
0.075 0.45 0
0.075 0.425 0
0.1 0.425 0
0.075 0.45 0
0.1 0.45 0
0 0.45 0
0.025 0.45 0
0 0.475 0
0.025 0.475 0
0.025 0.45 0
0.05 0.45 0
0.025 0.475 0
0.05 0.475 0
0 0.475 0
0.025 0.475 0
0 0.5 0
0.025 0.5 0
0.025 0.475 0
0.05 0.475 0
0.025 0.5 0
0.05 0.5 0
0.05 0.45 0
0.075 0.45 0
0.05 0.475 0
0.075 0.475 0
0.075 0.45 0
0.1 0.45 0
0.075 0.475 0
0.1 0.475 0
0.05 0.475 0
0.075 0.475 0
0.05 0.5 0
0.075 0.5 0
0.075 0.475 0
0.1 0.475 0
0.075 0.5 0
0.1 0.5 0
0.1 0.4 0
0.125 0.4 0
0.1 0.425 0
0.125 0.425 0
0.125 0.4 0
0.15 0.4 0
0.125 0.425 0
0.15 0.425 0
0.1 0.425 0
0.125 0.425 0
0.1 0.45 0
0.125 0.45 0
0.125 0.425 0
0.15 0.425 0
0.125 0.45 0
0.15 0.45 0
0.15 0.4 0
0.175 0.4 0
0.15 0.425 0
0.175 0.425 0
0.175 0.4 0
0.2 0.4 0
0.175 0.425 0
0.2 0.425 0
0.15 0.425 0
0.175 0.425 0
0.15 0.45 0
0.175 0.45 0
0.175 0.425 0
0.2 0.425 0
0.175 0.45 0
0.2 0.45 0
0.1 0.45 0
0.125 0.45 0
0.1 0.475 0
0.125 0.475 0
0.125 0.45 0
0.15 0.45 0
0.125 0.475 0
0.15 0.475 0
0.1 0.475 0
0.125 0.475 0
0.1 0.5 0
0.125 0.5 0
0.125 0.475 0
0.15 0.475 0
0.125 0.5 0
0.15 0.5 0
0.15 0.45 0
0.175 0.45 0
0.15 0.475 0
0.175 0.475 0
0.175 0.45 0
0.2 0.45 0
0.175 0.475 0
0.2 0.475 0
0.15 0.475 0
0.175 0.475 0
0.15 0.5 0
0.175 0.5 0
0.175 0.475 0
0.2 0.475 0
0.175 0.5 0
0.2 0.5 0
0 0.5 0
0.025 0.5 0
0 0.525 0
0.025 0.525 0
0.025 0.5 0
0.05 0.5 0
0.025 0.525 0
0.05 0.525 0
0 0.525 0
0.025 0.525 0
0 0.55 0
0.025 0.55 0
0.025 0.525 0
0.05 0.525 0
0.025 0.55 0
0.05 0.55 0
0.05 0.5 0
0.075 0.5 0
0.05 0.525 0
0.075 0.525 0
0.075 0.5 0
0.1 0.5 0
0.075 0.525 0
0.1 0.525 0
0.05 0.525 0
0.075 0.525 0
0.05 0.55 0
0.075 0.55 0
0.075 0.525 0
0.1 0.525 0
0.075 0.55 0
0.1 0.55 0
0 0.55 0
0.025 0.55 0
0 0.575 0
0.025 0.575 0
0.025 0.55 0
0.05 0.55 0
0.025 0.575 0
0.05 0.575 0
0 0.575 0
0.025 0.575 0
0 0.6 0
0.025 0.6 0
0.025 0.575 0
0.05 0.575 0
0.025 0.6 0
0.05 0.6 0
0.05 0.55 0
0.075 0.55 0
0.05 0.575 0
0.075 0.575 0
0.075 0.55 0
0.1 0.55 0
0.075 0.575 0
0.1 0.575 0
0.05 0.575 0
0.075 0.575 0
0.05 0.6 0
0.075 0.6 0
0.075 0.575 0
0.1 0.575 0
0.075 0.6 0
0.1 0.6 0
0.1 0.5 0
0.125 0.5 0
0.1 0.525 0
0.125 0.525 0
0.125 0.5 0
0.15 0.5 0
0.125 0.525 0
0.15 0.525 0
0.1 0.525 0
0.125 0.525 0
0.1 0.55 0
0.125 0.55 0
0.125 0.525 0
0.15 0.525 0
0.125 0.55 0
0.15 0.55 0
0.15 0.5 0
0.175 0.5 0
0.15 0.525 0
0.175 0.525 0
0.175 0.5 0
0.2 0.5 0
0.175 0.525 0
0.2 0.525 0
0.15 0.525 0
0.175 0.525 0
0.15 0.55 0
0.175 0.55 0
0.175 0.525 0
0.2 0.525 0
0.175 0.55 0
0.2 0.55 0
0.1 0.55 0
0.125 0.55 0
0.1 0.575 0
0.125 0.575 0
0.125 0.55 0
0.15 0.55 0
0.125 0.575 0
0.15 0.575 0
0.1 0.575 0
0.125 0.575 0
0.1 0.6 0
0.125 0.6 0
0.125 0.575 0
0.15 0.575 0
0.125 0.6 0
0.15 0.6 0
0.15 0.55 0
0.175 0.55 0
0.15 0.575 0
0.175 0.575 0
0.175 0.55 0
0.2 0.55 0
0.175 0.575 0
0.2 0.575 0
0.15 0.575 0
0.175 0.575 0
0.15 0.6 0
0.175 0.6 0
0.175 0.575 0
0.2 0.575 0
0.175 0.6 0
0.2 0.6 0
0 0.6 0
0.025 0.6 0
0 0.625 0
0.025 0.625 0
0.025 0.6 0
0.05 0.6 0
0.025 0.625 0
0.05 0.625 0
0 0.625 0
0.025 0.625 0
0 0.65 0
0.025 0.65 0
0.025 0.625 0
0.05 0.625 0
0.025 0.65 0
0.05 0.65 0
0.05 0.6 0
0.075 0.6 0
0.05 0.625 0
0.075 0.625 0
0.075 0.6 0
0.1 0.6 0
0.075 0.625 0
0.1 0.625 0
0.05 0.625 0
0.075 0.625 0
0.05 0.65 0
0.075 0.65 0
0.075 0.625 0
0.1 0.625 0
[...]
POINT_DATA 6400
VECTORS velocity double
0 0 0
0.0784591 0 0
0 -0.0784591 0
0.0781952 -0.0782196 0
0.0784591 0 0
0.156434 0 0
0.0781952 -0.0782196 0
0.155905 -0.0774949 0
0 -0.0784591 0
0.0781952 -0.0782196 0
0 -0.156434 0
0.0774732 -0.155948 0
0.0781952 -0.0782196 0
0.155905 -0.0774949 0
0.0774732 -0.155948 0
0.154471 -0.154508 0
0.156434 0 0
0.233445 0 0
0.155905 -0.0774949 0
0.232657 -0.0762965 0
0.233445 0 0
0.309017 0 0
0.232657 -0.0762965 0
0.307983 -0.0746284 0
0.155905 -0.0774949 0
0.232657 -0.0762965 0
0.154471 -0.154508 0
0.230528 -0.152124 0
0.232657 -0.0762965 0
0.307983 -0.0746284 0
0.230528 -0.152124 0
0.305171 -0.1488 0
0 -0.156434 0
0.0774732 -0.155948 0
0 -0.233445 0
0.0762762 -0.232717 0
0.0774732 -0.155948 0
0.154471 -0.154508 0
0.0762762 -0.232717 0
0.152089 -0.230578 0
0 -0.233445 0
0.0762762 -0.232717 0
0 -0.309017 0
0.07461 -0.308058 0
0.0762762 -0.232717 0
0.152089 -0.230578 0
0.07461 -0.308058 0
0.14877 -0.305235 0
0.154471 -0.154508 0
0.230528 -0.152124 0
0.152089 -0.230578 0
0.226976 -0.227023 0
0.230528 -0.152124 0
0.305171 -0.1488 0
0.226976 -0.227023 0
0.300464 -0.222058 0
0.152089 -0.230578 0
0.226976 -0.227023 0
0.14877 -0.305235 0
0.222017 -0.300523 0
0.226976 -0.227023 0
0.300464 -0.222058 0
0.222017 -0.300523 0
0.293891 -0.293942 0
0.309017 0 0
0.382683 0 0
0.307983 -0.0746284 0
0.38142 -0.0724988 0
0.382683 0 0
0.45399 0 0
0.38142 -0.0724988 0
0.45251 -0.0699204 0
0.307983 -0.0746284 0
0.38142 -0.0724988 0
0.305171 -0.1488 0
0.377936 -0.144554 0
0.38142 -0.0724988 0
0.45251 -0.0699204 0
0.377936 -0.144554 0
0.448371 -0.139412 0
0.45399 0 0
0.522499 0 0
0.45251 -0.0699204 0
0.520812 -0.0669096 0
0.522499 0 0
0.587785 0 0
0.520812 -0.0669096 0
0.585904 -0.0634856 0
0.45251 -0.0699204 0
0.520812 -0.0669096 0
0.448371 -0.139412 0
0.516039 -0.133407 0
0.520812 -0.0669096 0
0.585904 -0.0634856 0
0.516039 -0.133407 0
0.580524 -0.12658 0
0.305171 -0.1488 0
0.377936 -0.144554 0
0.300464 -0.222058 0
0.372098 -0.215716 0
0.377936 -0.144554 0
0.448371 -0.139412 0
0.372098 -0.215716 0
0.441434 -0.208039 0
0.300464 -0.222058 0
0.372098 -0.215716 0
0.293891 -0.293942 0
0.363949 -0.285541 0
0.372098 -0.215716 0
0.441434 -0.208039 0
0.363949 -0.285541 0
0.431762 -0.275378 0
0.448371 -0.139412 0
0.516039 -0.133407 0
0.441434 -0.208039 0
0.508047 -0.199077 0
0.516039 -0.133407 0
0.580524 -0.12658 0
0.508047 -0.199077 0
0.571529 -0.188888 0
0.441434 -0.208039 0
0.508047 -0.199077 0
0.431762 -0.275378 0
0.496915 -0.263516 0
0.508047 -0.199077 0
0.571529 -0.188888 0
0.496915 -0.263516 0
0.559006 -0.250031 0
0 -0.309017 0
0.07461 -0.308058 0
0 -0.382683 0
0.0724829 -0.381506 0
0.07461 -0.308058 0
0.14877 -0.305235 0
0.0724829 -0.381506 0
0.144528 -0.378011 0
0 -0.382683 0
0.0724829 -0.381506 0
0 -0.45399 0
0.0699072 -0.452607 0
0.0724829 -0.381506 0
0.144528 -0.378011 0
0.0699072 -0.452607 0
0.13939 -0.448455 0
0.14877 -0.305235 0
0.222017 -0.300523 0
0.144528 -0.378011 0
0.21568 -0.372165 0
0.222017 -0.300523 0
0.293891 -0.293942 0
0.21568 -0.372165 0
0.285497 -0.364009 0
0.144528 -0.378011 0
0.21568 -0.372165 0
0.13939 -0.448455 0
0.208009 -0.441508 0
0.21568 -0.372165 0
0.285497 -0.364009 0
0.208009 -0.441508 0
0.275341 -0.431828 0
0 -0.45399 0
0.0699072 -0.452607 0
0 -0.522499 0
0.0668994 -0.520918 0
0.0699072 -0.452607 0
0.13939 -0.448455 0
0.0668994 -0.520918 0
0.133391 -0.516129 0
0 -0.522499 0
0.0668994 -0.520918 0
0 -0.587785 0
0.0634782 -0.586017 0
0.0668994 -0.520918 0
0.133391 -0.516129 0
0.0634782 -0.586017 0
0.126567 -0.580617 0
0.13939 -0.448455 0
0.208009 -0.441508 0
0.133391 -0.516129 0
0.199053 -0.508126 0
0.208009 -0.441508 0
0.275341 -0.431828 0
0.199053 -0.508126 0
0.263487 -0.496985 0
0.133391 -0.516129 0
0.199053 -0.508126 0
0.126567 -0.580617 0
0.188871 -0.57161 0
0.199053 -0.508126 0
0.263487 -0.496985 0
0.188871 -0.57161 0
0.250009 -0.559079 0
0.293891 -0.293942 0
0.363949 -0.285541 0
0.285497 -0.364009 0
0.353552 -0.353603 0
0.363949 -0.285541 0
0.431762 -0.275378 0
0.353552 -0.353603 0
0.419429 -0.341018 0
0.285497 -0.364009 0
0.353552 -0.353603 0
0.275341 -0.431828 0
0.340976 -0.419485 0
0.353552 -0.353603 0
0.419429 -0.341018 0
0.340976 -0.419485 0
0.40451 -0.404557 0
0.431762 -0.275378 0
0.496915 -0.263516 0
0.419429 -0.341018 0
0.482721 -0.326331 0
0.496915 -0.263516 0
0.559006 -0.250031 0
0.482721 -0.326331 0
0.543039 -0.309632 0
0.419429 -0.341018 0
0.482721 -0.326331 0
0.40451 -0.404557 0
0.465552 -0.387134 0
0.482721 -0.326331 0
0.543039 -0.309632 0
0.465552 -0.387134 0
0.523724 -0.367324 0
0.275341 -0.431828 0
0.340976 -0.419485 0
0.263487 -0.496985 0
0.326297 -0.482782 0
0.340976 -0.419485 0
0.40451 -0.404557 0
0.326297 -0.482782 0
0.387097 -0.465602 0
0.263487 -0.496985 0
0.326297 -0.482782 0
0.250009 -0.559079 0
0.309607 -0.543102 0
0.326297 -0.482782 0
0.387097 -0.465602 0
0.309607 -0.543102 0
0.367298 -0.523775 0
0.40451 -0.404557 0
0.465552 -0.387134 0
0.387097 -0.465602 0
0.445511 -0.44555 0
0.465552 -0.387134 0
0.523724 -0.367324 0
0.445511 -0.44555 0
0.501179 -0.422751 0
0.387097 -0.465602 0
0.445511 -0.44555 0
0.367298 -0.523775 0
0.422724 -0.501218 0
0.445511 -0.44555 0
0.501179 -0.422751 0
0.422724 -0.501218 0
0.475544 -0.475571 0
0 -0.587785 0
0.0634782 -0.586017 0
0 -0.649448 0
0.0596653 -0.6475 0
0.0634782 -0.586017 0
0.126567 -0.580617 0
0.0596653 -0.6475 0
0.118963 -0.641523 0
0 -0.649448 0
0.0596653 -0.6475 0
0 -0.707107 0
0.0554844 -0.704988 0
0.0596653 -0.6475 0
0.118963 -0.641523 0
0.0554844 -0.704988 0
0.110626 -0.698472 0
0.126567 -0.580617 0
0.188871 -0.57161 0
0.118963 -0.641523 0
0.177524 -0.63157 0
0.188871 -0.57161 0
0.250009 -0.559079 0
0.177524 -0.63157 0
0.23499 -0.617726 0
0.118963 -0.641523 0
0.177524 -0.63157 0
0.110626 -0.698472 0
0.165082 -0.687636 0
0.177524 -0.63157 0
0.23499 -0.617726 0
0.165082 -0.687636 0
0.218522 -0.672564 0
0 -0.707107 0
0.0554844 -0.704988 0
0 -0.760406 0
0.0509614 -0.758127 0
0.0554844 -0.704988 0
0.110626 -0.698472 0
0.0509614 -0.758127 0
0.101607 -0.751114 0
0 -0.760406 0
0.0509614 -0.758127 0
0 -0.809017 0
0.0461241 -0.80659 0
0.0509614 -0.758127 0
0.101607 -0.751114 0
0.0461241 -0.80659 0
0.0919612 -0.799124 0
0.110626 -0.698472 0
0.165082 -0.687636 0
0.101607 -0.751114 0
0.151624 -0.739462 0
0.165082 -0.687636 0
0.218522 -0.672564 0
0.151624 -0.739462 0
0.200707 -0.723254 0
0.101607 -0.751114 0
0.151624 -0.739462 0
0.0919612 -0.799124 0
0.13723 -0.786729 0
0.151624 -0.739462 0
0.200707 -0.723254 0
0.13723 -0.786729 0
0.181654 -0.769485 0
0.250009 -0.559079 0
0.309607 -0.543102 0
0.23499 -0.617726 0
0.291008 -0.600073 0
0.309607 -0.543102 0
0.367298 -0.523775 0
0.291008 -0.600073 0
0.345233 -0.578719 0
0.23499 -0.617726 0
0.291008 -0.600073 0
0.218522 -0.672564 0
0.270615 -0.653343 0
0.291008 -0.600073 0
0.345233 -0.578719 0
0.270615 -0.653343 0
0.321039 -0.630094 0
0.367298 -0.523775 0
0.422724 -0.501218 0
0.345233 -0.578719 0
0.397329 -0.553796 0
0.422724 -0.501218 0
0.475544 -0.475571 0
0.397329 -0.553796 0
0.446977 -0.525459 0
0.345233 -0.578719 0
0.397329 -0.553796 0
0.321039 -0.630094 0
0.369485 -0.602959 0
0.397329 -0.553796 0
0.446977 -0.525459 0
0.369485 -0.602959 0
0.415653 -0.572107 0
0.218522 -0.672564 0
0.270615 -0.653343 0
0.200707 -0.723254 0
0.248553 -0.702585 0
0.270615 -0.653343 0
0.321039 -0.630094 0
0.248553 -0.702585 0
0.294866 -0.677584 0
0.200707 -0.723254 0
0.248553 -0.702585 0
0.181654 -0.769485 0
0.224958 -0.747495 0
0.248553 -0.702585 0
0.294866 -0.677584 0
0.224958 -0.747495 0
0.266875 -0.720895 0
0.321039 -0.630094 0
0.369485 -0.602959 0
0.294866 -0.677584 0
0.339362 -0.648404 0
0.369485 -0.602959 0
0.415653 -0.572107 0
0.339362 -0.648404 0
0.381767 -0.615227 0
0.294866 -0.677584 0
0.339362 -0.648404 0
0.266875 -0.720895 0
0.307147 -0.689851 0
0.339362 -0.648404 0
0.381767 -0.615227 0
0.307147 -0.689851 0
0.345526 -0.654554 0
0 -0.809017 0
0.0461241 -0.80659 0
0 -0.85264 0
0.0410024 -0.850077 0
0.0461241 -0.80659 0
0.0919612 -0.799124 0
0.0410024 -0.850077 0
0.0817489 -0.842206 0
0 -0.85264 0
0.0410024 -0.850077 0
0 -0.891007 0
0.0356279 -0.888321 0
0.0410024 -0.850077 0
0.0817489 -0.842206 0
0.0356279 -0.888321 0
0.0710326 -0.880095 0
0.0919612 -0.799124 0
0.13723 -0.786729 0
0.0817489 -0.842206 0
0.121991 -0.829144 0
0.13723 -0.786729 0
0.181654 -0.769485 0
0.121991 -0.829144 0
0.161482 -0.81097 0
0.0817489 -0.842206 0
0.121991 -0.829144 0
0.0710326 -0.880095 0
0.106 -0.866447 0
0.121991 -0.829144 0
0.161482 -0.81097 0
0.106 -0.866447 0
0.140313 -0.847455 0
0 -0.891007 0
0.0356279 -0.888321 0
0 -0.92388 0
0.0300337 -0.921087 0
0.0356279 -0.888321 0
0.0710326 -0.880095 0
0.0300337 -0.921087 0
0.0598785 -0.912558 0
0 -0.92388 0
0.0300337 -0.921087 0
0 -0.951057 0
0.0242543 -0.948173 0
0.0300337 -0.921087 0
0.0598785 -0.912558 0
0.0242543 -0.948173 0
0.0483551 -0.939394 0
0.0710326 -0.880095 0
0.106 -0.866447 0
0.0598785 -0.912558 0
0.0893546 -0.898407 0
0.106 -0.866447 0
0.140313 -0.847455 0
0.0893546 -0.898407 0
0.11828 -0.878715 0
0.0598785 -0.912558 0
0.0893546 -0.898407 0
0.0483551 -0.939394 0
0.0721586 -0.924827 0
0.0893546 -0.898407 0
0.11828 -0.878715 0
0.0721586 -0.924827 0
0.0955172 -0.904556 0
0.181654 -0.769485 0
0.224958 -0.747495 0
0.161482 -0.81097 0
0.199977 -0.787795 0
0.224958 -0.747495 0
0.266875 -0.720895 0
0.199977 -0.787795 0
0.237239 -0.759762 0
0.161482 -0.81097 0
0.199977 -0.787795 0
0.140313 -0.847455 0
0.173762 -0.823238 0
0.199977 -0.787795 0
0.237239 -0.759762 0
0.173762 -0.823238 0
0.20614 -0.793944 0
0.266875 -0.720895 0
0.307147 -0.689851 0
0.237239 -0.759762 0
0.273039 -0.727045 0
0.307147 -0.689851 0
0.345526 -0.654554 0
0.273039 -0.727045 0
0.307155 -0.689845 0
0.237239 -0.759762 0
0.273039 -0.727045 0
0.20614 -0.793944 0
0.237246 -0.759755 0
0.273039 -0.727045 0
0.307155 -0.689845 0
0.237246 -0.759755 0
0.266891 -0.720882 0
0.140313 -0.847455 0
0.173762 -0.823238 0
0.11828 -0.878715 0
0.146476 -0.853605 0
0.173762 -0.823238 0
0.20614 -0.793944 0
0.146476 -0.853605 0
0.173769 -0.823231 0
0.11828 -0.878715 0
0.146476 -0.853605 0
0.0955172 -0.904556 0
0.118287 -0.878708 0
0.146476 -0.853605 0
0.173769 -0.823231 0
0.118287 -0.878708 0
0.140327 -0.847442 0
0.20614 -0.793944 0
0.237246 -0.759755 0
0.173769 -0.823231 0
0.199991 -0.787782 0
0.237246 -0.759755 0
0.266891 -0.720882 0
0.199991 -0.787782 0
0.22498 -0.747475 0
0.173769 -0.823231 0
0.199991 -0.787782 0
0.140327 -0.847442 0
0.161503 -0.81095 0
0.199991 -0.787782 0
0.22498 -0.747475 0
0.161503 -0.81095 0
0.181683 -0.769459 0
0 -0.951057 0
0.0242543 -0.948173 0
0 -0.97237 0
0.0183252 -0.969411 0
0.0242543 -0.948173 0
0.0483551 -0.939394 0
0.0183252 -0.969411 0
0.0365337 -0.960438 0
0 -0.97237 0
0.0183252 -0.969411 0
0 -0.987688 0
0.0122832 -0.984673 0
0.0183252 -0.969411 0
0.0365337 -0.960438 0
0.0122832 -0.984673 0
0.024487 -0.97556 0
0.0483551 -0.939394 0
0.0721586 -0.924827 0
0.0365337 -0.960438 0
0.0545177 -0.945545 0
0.0721586 -0.924827 0
0.0955172 -0.904556 0
0.0545177 -0.945545 0
0.0721654 -0.924821 0
0.0365337 -0.960438 0
0.0545177 -0.945545 0
0.024487 -0.97556 0
0.0365406 -0.960433 0
0.0545177 -0.945545 0
0.0721654 -0.924821 0
0.0365406 -0.960433 0
0.0483687 -0.939383 0
0 -0.987688 0
0.0122832 -0.984673 0
0 -0.996917 0
0.00616535 -0.993863 0
0.0122832 -0.984673 0
0.024487 -0.97556 0
0.00616535 -0.993863 0
0.0122893 -0.984668 0
0 -0.996917 0
0.00616535 -0.993863 0
0 -1 0
9.45624e-06 -0.996926 0
0.00616535 -0.993863 0
0.0122893 -0.984668 0
9.45624e-06 -0.996926 0
1.56906e-05 -0.987704 0
0.024487 -0.97556 0
0.0365406 -0.960433 0
0.0122893 -0.984668 0
0.0183381 -0.969399 0
0.0365406 -0.960433 0
0.0483687 -0.939383 0
0.0183381 -0.969399 0
0.0242736 -0.948153 0
0.0122893 -0.984668 0
0.0183381 -0.969399 0
1.56906e-05 -0.987704 0
2.24122e-05 -0.972389 0
0.0183381 -0.969399 0
0.0242736 -0.948153 0
2.24122e-05 -0.972389 0
2.88166e-05 -0.951077 0
0.0955172 -0.904556 0
0.118287 -0.878708 0
0.0721654 -0.924821 0
0.0893683 -0.898394 0
0.118287 -0.878708 0
0.140327 -0.847442 0
0.0893683 -0.898394 0
0.10602 -0.866427 0
0.0721654 -0.924821 0
0.0893683 -0.898394 0
0.0483687 -0.939383 0
0.0598986 -0.91254 0
0.0893683 -0.898394 0
0.10602 -0.866427 0
0.0598986 -0.91254 0
0.0710593 -0.880071 0
0.140327 -0.847442 0
0.161503 -0.81095 0
0.10602 -0.866427 0
0.122019 -0.829119 0
0.161503 -0.81095 0
0.181683 -0.769459 0
0.122019 -0.829119 0
0.137265 -0.786699 0
0.10602 -0.866427 0
0.122019 -0.829119 0
0.0710593 -0.880071 0
0.0817818 -0.842176 0
0.122019 -0.829119 0
0.137265 -0.786699 0
0.0817818 -0.842176 0
0.0920001 -0.799088 0
0.0483687 -0.939383 0
0.0598986 -0.91254 0
0.0242736 -0.948153 0
0.0300596 -0.92106 0
0.0598986 -0.91254 0
0.0710593 -0.880071 0
0.0300596 -0.92106 0
0.0356601 -0.888288 0
0.0242736 -0.948153 0
0.0300596 -0.92106 0
2.88166e-05 -0.951077 0
3.50098e-05 -0.923901 0
0.0300596 -0.92106 0
0.0356601 -0.888288 0
3.50098e-05 -0.923901 0
4.08948e-05 -0.891029 0
0.0710593 -0.880071 0
0.0817818 -0.842176 0
0.0356601 -0.888288 0
0.0410407 -0.85004 0
0.0817818 -0.842176 0
0.0920001 -0.799088 0
0.0410407 -0.85004 0
0.0461682 -0.80655 0
0.0356601 -0.888288 0
0.0410407 -0.85004 0
4.08948e-05 -0.891029 0
4.64217e-05 -0.852663 0
0.0410407 -0.85004 0
0.0461682 -0.80655 0
4.64217e-05 -0.852663 0
5.15328e-05 -0.809039 0
0 -1 0
9.45624e-06 -0.996926 0
0 -0.996917 0
-0.00614654 -0.993842 0
9.45624e-06 -0.996926 0
1.56906e-05 -0.987704 0
-0.00614654 -0.993842 0
-0.012258 -0.984651 0
0 -0.996917 0
-0.00614654 -0.993842 0
0 -0.987688 0
-0.0122647 -0.984631 0
-0.00614654 -0.993842 0
-0.012258 -0.984651 0
-0.0122647 -0.984631 0
-0.0244563 -0.975528 0
1.56906e-05 -0.987704 0
2.24122e-05 -0.972389 0
-0.012258 -0.984651 0
-0.0182935 -0.969383 0
2.24122e-05 -0.972389 0
2.88166e-05 -0.951077 0
-0.0182935 -0.969383 0
-0.0242163 -0.948138 0
-0.012258 -0.984651 0
-0.0182935 -0.969383 0
-0.0244563 -0.975528 0
-0.0364967 -0.960401 0
-0.0182935 -0.969383 0
-0.0242163 -0.948138 0
-0.0364967 -0.960401 0
-0.0483123 -0.939353 0
0 -0.987688 0
-0.0122647 -0.984631 0
0 -0.97237 0
-0.0183073 -0.96935 0
-0.0122647 -0.984631 0
-0.0244563 -0.975528 0
-0.0183073 -0.96935 0
-0.0365038 -0.96039 0
0 -0.97237 0
-0.0183073 -0.96935 0
0 -0.951057 0
-0.024237 -0.948092 0
-0.0183073 -0.96935 0
-0.0365038 -0.96039 0
-0.024237 -0.948092 0
-0.0483265 -0.939331 0
-0.0244563 -0.975528 0
-0.0364967 -0.960401 0
-0.0365038 -0.96039 0
-0.0544751 -0.945498 0
-0.0364967 -0.960401 0
-0.0483123 -0.939353 0
-0.0544751 -0.945498 0
-0.0721106 -0.924777 0
-0.0365038 -0.96039 0
-0.0544751 -0.945498 0
-0.0483265 -0.939331 0
-0.0721177 -0.924765 0
-0.0544751 -0.945498 0
-0.0721106 -0.924777 0
-0.0721177 -0.924765 0
-0.0954644 -0.904499 0
2.88166e-05 -0.951077 0
3.50098e-05 -0.923901 0
-0.0242163 -0.948138 0
-0.0299899 -0.921046 0
3.50098e-05 -0.923901 0
4.08948e-05 -0.891029 0
-0.0299899 -0.921046 0
-0.0355787 -0.888276 0
-0.0242163 -0.948138 0
-0.0299899 -0.921046 0
-0.0483123 -0.939353 0
-0.0598301 -0.912513 0
-0.0299899 -0.921046 0
-0.0355787 -0.888276 0
-0.0598301 -0.912513 0
-0.0709792 -0.880046 0
4.08948e-05 -0.891029 0
4.64217e-05 -0.852663 0
-0.0355787 -0.888276 0
-0.0409484 -0.850029 0
4.64217e-05 -0.852663 0
5.15328e-05 -0.809039 0
-0.0409484 -0.850029 0
-0.0460657 -0.806541 0
-0.0355787 -0.888276 0
-0.0409484 -0.850029 0
-0.0709792 -0.880046 0
-0.0816909 -0.842154 0
-0.0409484 -0.850029 0
-0.0460657 -0.806541 0
-0.0816909 -0.842154 0
-0.0918992 -0.799069 0
-0.0483123 -0.939353 0
-0.0598301 -0.912513 0
-0.0721106 -0.924777 0
-0.0893016 -0.898354 0
-0.0598301 -0.912513 0
-0.0709792 -0.880046 0
-0.0893016 -0.898354 0
-0.105942 -0.866391 0
-0.0721106 -0.924777 0
-0.0893016 -0.898354 0
-0.0954644 -0.904499 0
-0.118223 -0.878656 0
-0.0893016 -0.898354 0
-0.105942 -0.866391 0
-0.118223 -0.878656 0
-0.140252 -0.847395 0
-0.0709792 -0.880046 0
-0.0816909 -0.842154 0
-0.105942 -0.866391 0
-0.12193 -0.829087 0
-0.0816909 -0.842154 0
-0.0918992 -0.799069 0
-0.12193 -0.829087 0
-0.137166 -0.786671 0
-0.105942 -0.866391 0
-0.12193 -0.829087 0
-0.140252 -0.847395 0
-0.161418 -0.810909 0
-0.12193 -0.829087 0
-0.137166 -0.786671 0
-0.161418 -0.810909 0
-0.181588 -0.769423 0
0 -0.951057 0
-0.024237 -0.948092 0
0 -0.92388 0
-0.0300174 -0.92099 0
-0.024237 -0.948092 0
-0.0483265 -0.939331 0
-0.0300174 -0.92099 0
-0.0598513 -0.912482 0
0 -0.92388 0
-0.0300174 -0.92099 0
0 -0.891007 0
-0.0356128 -0.88821 0
-0.0300174 -0.92099 0
-0.0598513 -0.912482 0
-0.0356128 -0.88821 0
-0.0710072 -0.880007 0
-0.0483265 -0.939331 0
-0.0721177 -0.924765 0
-0.0598513 -0.912482 0
-0.0893159 -0.898332 0
-0.0721177 -0.924765 0
-0.0954644 -0.904499 0
-0.0893159 -0.898332 0
-0.11823 -0.878646 0
-0.0598513 -0.912482 0
-0.0893159 -0.898332 0
-0.0710072 -0.880007 0
-0.105964 -0.866361 0
-0.0893159 -0.898332 0
-0.11823 -0.878646 0
-0.105964 -0.866361 0
-0.140267 -0.847376 0
0 -0.891007 0
-0.0356128 -0.88821 0
0 -0.85264 0
-0.0409887 -0.849954 0
-0.0356128 -0.88821 0
-0.0710072 -0.880007 0
-0.0409887 -0.849954 0
-0.0817256 -0.842107 0
0 -0.85264 0
-0.0409887 -0.849954 0
0 -0.809017 0
-0.0461119 -0.806458 0
-0.0409887 -0.849954 0
-0.0817256 -0.842107 0
-0.0461119 -0.806458 0
-0.0919402 -0.799016 0
-0.0710072 -0.880007 0
-0.105964 -0.866361 0
-0.0817256 -0.842107 0
-0.121958 -0.829049 0
-0.105964 -0.866361 0
-0.140267 -0.847376 0
-0.121958 -0.829049 0
-0.161439 -0.810882 0
-0.0817256 -0.842107 0
-0.121958 -0.829049 0
-0.0919402 -0.799016 0
-0.137201 -0.786626 0
-0.121958 -0.829049 0
-0.161439 -0.810882 0
-0.137201 -0.786626 0
-0.181616 -0.769389 0
-0.0954644 -0.904499 0
-0.118223 -0.878656 0
-0.11823 -0.878646 0
-0.146415 -0.853541 0
-0.118223 -0.878656 0
-0.140252 -0.847395 0
-0.146415 -0.853541 0
-0.173698 -0.823174 0
-0.11823 -0.878646 0
-0.146415 -0.853541 0
-0.140267 -0.847376 0
-0.173705 -0.823165 0
-0.146415 -0.853541 0
-0.173698 -0.823174 0
-0.173705 -0.823165 0
-0.206073 -0.793879 0
-0.140252 -0.847395 0
-0.161418 -0.810909 0
-0.173698 -0.823174 0
-0.19991 -0.787732 0
-0.161418 -0.810909 0
-0.181588 -0.769423 0
-0.19991 -0.787732 0
-0.224891 -0.747432 0
-0.173698 -0.823174 0
-0.19991 -0.787732 0
-0.206073 -0.793879 0
-0.237171 -0.759698 0
-0.19991 -0.787732 0
-0.224891 -0.747432 0
-0.237171 -0.759698 0
-0.266807 -0.720833 0
-0.140267 -0.847376 0
-0.173705 -0.823165 0
-0.161439 -0.810882 0
-0.199925 -0.787714 0
-0.173705 -0.823165 0
-0.206073 -0.793879 0
-0.199925 -0.787714 0
-0.237178 -0.759689 0
-0.161439 -0.810882 0
-0.199925 -0.787714 0
-0.181616 -0.769389 0
-0.224912 -0.747407 0
-0.199925 -0.787714 0
-0.237178 -0.759689 0
-0.224912 -0.747407 0
-0.266821 -0.720817 0
-0.206073 -0.793879 0
-0.237171 -0.759698 0
-0.237178 -0.759689 0
-0.27297 -0.726981 0
-0.237171 -0.759698 0
-0.266807 -0.720833 0
-0.27297 -0.726981 0
-0.307078 -0.689789 0
-0.237178 -0.759689 0
-0.27297 -0.726981 0
-0.266821 -0.720817 0
-0.307086 -0.689782 0
-0.27297 -0.726981 0
-0.307078 -0.689789 0
-0.307086 -0.689782 0
-0.345457 -0.654494 0
0 -0.809017 0
-0.0461119 -0.806458 0
0 -0.760406 0
-0.050951 -0.757991 0
-0.0461119 -0.806458 0
-0.0919402 -0.799016 0
-0.050951 -0.757991 0
-0.101588 -0.750999 0
0 -0.760406 0
-0.050951 -0.757991 0
0 -0.707107 0
-0.055476 -0.704851 0
-0.050951 -0.757991 0
-0.101588 -0.750999 0
-0.055476 -0.704851 0
-0.11061 -0.698353 0
-0.0919402 -0.799016 0
-0.137201 -0.786626 0
-0.101588 -0.750999 0
-0.151598 -0.739355 0
-0.137201 -0.786626 0
-0.181616 -0.769389 0
-0.151598 -0.739355 0
-0.200674 -0.723153 0
-0.101588 -0.750999 0
-0.151598 -0.739355 0
-0.11061 -0.698353 0
-0.165061 -0.687526 0
-0.151598 -0.739355 0
-0.200674 -0.723153 0
-0.165061 -0.687526 0
-0.218495 -0.67246 0
0 -0.707107 0
-0.055476 -0.704851 0
0 -0.649448 0
-0.059659 -0.647365 0
-0.055476 -0.704851 0
-0.11061 -0.698353 0
-0.059659 -0.647365 0
-0.11895 -0.641402 0
0 -0.649448 0
-0.059659 -0.647365 0
0 -0.587785 0
-0.0634742 -0.585889 0
-0.059659 -0.647365 0
-0.11895 -0.641402 0
-0.0634742 -0.585889 0
-0.126557 -0.580497 0
-0.11061 -0.698353 0
-0.165061 -0.687526 0
-0.11895 -0.641402 0
-0.177507 -0.631459 0
-0.165061 -0.687526 0
-0.218495 -0.67246 0
-0.177507 -0.631459 0
-0.234969 -0.617621 0
-0.11895 -0.641402 0