# vtk DataFile Version 3.0
#This file was generated by the deal.II library on 2026/6/8 at 18:00:24
ASCII
DATASET UNSTRUCTURED_GRID

POINTS 100 double
0 0 0
0.2 0 0
0 0.2 0
0.2 0.2 0
0 0.2 0
0.2 0.2 0
0 0.4 0
0.2 0.4 0
0 0.4 0
0.2 0.4 0
0 0.6 0
0.2 0.6 0
0 0.6 0
0.2 0.6 0
0 0.8 0
0.2 0.8 0
0 0.8 0
0.2 0.8 0
0 1 0
0.2 1 0
0.2 0 0
0.4 0 0
0.2 0.2 0
0.4 0.2 0
0.2 0.2 0
0.4 0.2 0
0.2 0.4 0
0.4 0.4 0
0.2 0.4 0
0.4 0.4 0
0.2 0.6 0
0.4 0.6 0
0.2 0.6 0
0.4 0.6 0
0.2 0.8 0
0.4 0.8 0
0.2 0.8 0
0.4 0.8 0
0.2 1 0
0.4 1 0
0.4 0 0
0.6 0 0
0.4 0.2 0
0.6 0.2 0
0.4 0.2 0
0.6 0.2 0
0.4 0.4 0
0.6 0.4 0
0.4 0.4 0
0.6 0.4 0
0.4 0.6 0
0.6 0.6 0
0.4 0.6 0
0.6 0.6 0
0.4 0.8 0
0.6 0.8 0
0.4 0.8 0
0.6 0.8 0
0.4 1 0
0.6 1 0
0.6 0 0
0.8 0 0
0.6 0.2 0
0.8 0.2 0
0.6 0.2 0
0.8 0.2 0
0.6 0.4 0
0.8 0.4 0
0.6 0.4 0
0.8 0.4 0
0.6 0.6 0
0.8 0.6 0
0.6 0.6 0
0.8 0.6 0
0.6 0.8 0
0.8 0.8 0
0.6 0.8 0
0.8 0.8 0
0.6 1 0
0.8 1 0
0.8 0 0
1 0 0
0.8 0.2 0
1 0.2 0
0.8 0.2 0
1 0.2 0
0.8 0.4 0
1 0.4 0
0.8 0.4 0
1 0.4 0
0.8 0.6 0
1 0.6 0
0.8 0.6 0
1 0.6 0
0.8 0.8 0
1 0.8 0
0.8 0.8 0
1 0.8 0
0.8 1 0
1 1 0

CELLS 25 125
4	0	1	3	2
4	4	5	7	6
4	8	9	11	10
4	12	13	15	14
4	16	17	19	18
4	20	21	23	22
4	24	25	27	26
4	28	29	31	30
4	32	33	35	34
4	36	37	39	38
4	40	41	43	42
4	44	45	47	46
4	48	49	51	50
4	52	53	55	54
4	56	57	59	58
4	60	61	63	62
4	64	65	67	66
4	68	69	71	70
4	72	73	75	74
4	76	77	79	78
4	80	81	83	82
4	84	85	87	86
4	88	89	91	90
4	92	93	95	94
4	96	97	99	98

CELL_TYPES 25
 9 9 9 9 9 9 9 9 9 9 9 9 9 9 9 9 9 9 9 9 9 9 9 9 9
POINT_DATA 100
VECTORS velocity double
0 0 0
0.587785 0 0
0 -0.587785 0
0.459379 -0.458947 0
0 -0.587785 0
0.459379 -0.458947 0
0 -0.951057 0
0.176201 -0.722946 0
0 -0.951057 0
0.176201 -0.722946 0
0 -0.951057 0
-0.160442 -0.721826 0
0 -0.951057 0
-0.160442 -0.721826 0
0 -0.587785 0
-0.452024 -0.455847 0
0 -0.587785 0
-0.452024 -0.455847 0
0 -1.22465e-16 0
-0.587785 -9.9076e-17 0
0.587785 0 0
0.951057 0 0
0.459379 -0.458947 0
0.728343 -0.166 0
0.459379 -0.458947 0
0.728343 -0.166 0
0.176201 -0.722946 0
0.284492 -0.272958 0
0.176201 -0.722946 0
0.284492 -0.272958 0
-0.160442 -0.721826 0
-0.264581 -0.275123 0
-0.160442 -0.721826 0
-0.264581 -0.275123 0
-0.452024 -0.455847 0
-0.715814 -0.16974 0
-0.452024 -0.455847 0
-0.715814 -0.16974 0
-0.587785 -9.9076e-17 0
-0.951057 -3.78437e-17 0
0.951057 0 0
0.951057 0 0
0.728343 -0.166 0
0.72992 0.172814 0
0.728343 -0.166 0
0.72992 0.172814 0
0.284492 -0.272958 0
0.283205 0.277587 0
0.284492 -0.272958 0
0.283205 0.277587 0
-0.264581 -0.275123 0
-0.268211 0.274828 0
-0.264581 -0.275123 0
-0.268211 0.274828 0
-0.715814 -0.16974 0
-0.718592 0.167032 0
-0.715814 -0.16974 0
-0.718592 0.167032 0
-0.951057 -3.78437e-17 0
-0.951057 3.78437e-17 0
0.951057 0 0
0.587785 0 0
0.72992 0.172814 0
0.463339 0.458691 0
0.72992 0.172814 0
0.463339 0.458691 0
0.283205 0.277587 0
0.172594 0.725102 0
0.283205 0.277587 0
0.172594 0.725102 0
-0.268211 0.274828 0
-0.166349 0.722783 0
-0.268211 0.274828 0
-0.166349 0.722783 0
-0.718592 0.167032 0
-0.455164 0.456417 0
-0.718592 0.167032 0
-0.455164 0.456417 0
-0.951057 3.78437e-17 0
-0.587785 9.9076e-17 0
0.587785 0 0
1.22465e-16 0 0
0.463339 0.458691 0
9.9076e-17 0.587785 0
0.463339 0.458691 0
9.9076e-17 0.587785 0
0.172594 0.725102 0
3.78437e-17 0.951057 0
0.172594 0.725102 0
3.78437e-17 0.951057 0
-0.166349 0.722783 0
-3.78437e-17 0.951057 0
-0.166349 0.722783 0
-3.78437e-17 0.951057 0
-0.455164 0.456417 0
-9.9076e-17 0.587785 0
-0.455164 0.456417 0
-9.9076e-17 0.587785 0
-0.587785 9.9076e-17 0
-1.22465e-16 1.22465e-16 0
VECTORS velocity_error double
0 0 0
0 0 0
0 0 0
0.0161488 -0.0165815 0
0 0 0
0.0161488 -0.0165815 0
0 0 0
0.00543468 -0.0464752 0
0 0 0
0.00543468 -0.0464752 0
0 0 0
-0.0211939 -0.0475953 0
0 0 0
-0.0211939 -0.0475953 0
0 0 0
-0.0235039 -0.0196817 0
0 0 0
-0.0235039 -0.0196817 0
0 0 0
0 0 0
0 0 0
0 0 0
0.0161488 -0.0165815 0
0.0410776 -0.015636 0
0.0161488 -0.0165815 0
0.0410776 -0.015636 0
0.00543468 -0.0464752 0
0.00940048 -0.0209343 0
0.00543468 -0.0464752 0
0.00940048 -0.0209343 0
-0.0211939 -0.0475953 0
-0.0293116 -0.01877 0
-0.0211939 -0.0475953 0
-0.0293116 -0.01877 0
-0.0235039 -0.0196817 0
-0.0536071 -0.0118956 0
-0.0235039 -0.0196817 0
-0.0536071 -0.0118956 0
0 0 0
0 0 0
0 0 0
0 0 0
0.0410776 -0.015636 0
0.0395013 0.00882213 0
0.0410776 -0.015636 0
0.0395013 0.00882213 0
0.00940048 -0.0209343 0
0.0106876 0.0163052 0
0.00940048 -0.0209343 0
0.0106876 0.0163052 0
-0.0293116 -0.01877 0
-0.0256815 0.0190643 0
-0.0293116 -0.01877 0
-0.0256815 0.0190643 0
-0.0536071 -0.0118956 0
-0.0508284 0.0146039 0
-0.0536071 -0.0118956 0
-0.0508284 0.0146039 0
0 0 0
0 0 0
0 0 0
0 0 0
0.0395013 0.00882213 0
0.0121889 0.0168368 0
0.0395013 0.00882213 0
0.0121889 0.0168368 0
0.0106876 0.0163052 0
0.00904126 0.0443194 0
0.0106876 0.0163052 0
0.00904126 0.0443194 0
-0.0256815 0.0190643 0
-0.0152864 0.0466381 0
-0.0256815 0.0190643 0
-0.0152864 0.0466381 0
-0.0508284 0.0146039 0
-0.0203647 0.0191114 0
-0.0508284 0.0146039 0
-0.0203647 0.0191114 0
0 0 0
0 0 0
0 0 0
0 0 0
0.0121889 0.0168368 0
0 0 0
0.0121889 0.0168368 0
0 0 0
0.00904126 0.0443194 0
0 0 0
0.00904126 0.0443194 0
0 0 0
-0.0152864 0.0466381 0
0 0 0
-0.0152864 0.0466381 0
0 0 0
-0.0203647 0.0191114 0
0 0 0
-0.0203647 0.0191114 0
0 0 0
0 0 0
0 0 0
SCALARS pressure double 1
LOOKUP_TABLE default
-0.0711959 -0.0391649 0.581859 0.477365 0.581859 0.477365 1.0051 0.837897 1.0051 0.837897 1.00464 0.837156 1.00464 0.837156 0.580461 0.477051 0.580461 0.477051 -0.062118 -0.0414294 -0.0391649 -0.00966025 0.477365 0.209782 0.477365 0.209782 0.837897 0.385343 0.837897 0.385343 0.837156 0.38483 0.837156 0.38483 0.477051 0.20895 0.477051 0.20895 -0.0414294 -0.00900245 -0.00966025 -0.0121436 0.209782 -0.177299 0.209782 -0.177299 0.385343 -0.242424 0.385343 -0.242424 0.38483 -0.242932 0.38483 -0.242932 0.20895 -0.178209 0.20895 -0.178209 -0.00900245 -0.0132693 -0.0121436 -0.0493822 -0.177299 -0.535543 -0.177299 -0.535543 -0.242424 -0.805576 -0.242424 -0.805576 -0.242932 -0.806233 -0.242932 -0.806233 -0.178209 -0.53585 -0.178209 -0.53585 -0.0132693 -0.0503403 -0.0493822 -0.0777475 -0.535543 -0.669964 -0.535543 -0.669964 -0.805576 -1.02756 -0.805576 -1.02756 -0.806233 -1.02623 -0.806233 -1.02623 -0.53585 -0.672663 -0.53585 -0.672663 -0.0503403 -0.0686724 
SCALARS pressure_error double 1
LOOKUP_TABLE default
0.0711959 0.0391649 0.00592595 -0.0018369 0.00592595 -0.0018369 -0.0540479 -0.068476 -0.0540479 -0.068476 -0.0535808 -0.0677348 -0.0535808 -0.0677348 0.00732445 -0.00152281 0.00732445 -0.00152281 0.062118 0.0414294 0.0391649 0.00966025 -0.0018369 -0.0281468 -0.0018369 -0.0281468 -0.068476 -0.09145 -0.068476 -0.09145 -0.0677348 -0.0909374 -0.0677348 -0.0909374 -0.00152281 -0.0273146 -0.00152281 -0.0273146 0.0414294 0.00900245 0.00966025 0.0121436 -0.0281468 -0.00433641 -0.0281468 -0.00433641 -0.09145 -0.0514687 -0.09145 -0.0514687 -0.0909374 -0.0509604 -0.0909374 -0.0509604 -0.0273146 -0.00342663 -0.0273146 -0.00342663 0.00900245 0.0132693 0.0121436 0.0493822 -0.00433641 0.0600143 -0.00433641 0.0600143 -0.0514687 0.0361554 -0.0514687 0.0361554 -0.0509604 0.0368122 -0.0509604 0.0368122 -0.00342663 0.060322 -0.00342663 0.060322 0.0132693 0.0503403 0.0493822 0.0777475 0.0600143 0.082179 0.0600143 0.082179 0.0361554 0.0764992 0.0361554 0.0764992 0.0368122 0.0751776 0.0368122 0.0751776 0.060322 0.0848776 0.060322 0.0848776 0.0503403 0.0686724 
SCALARS temperature double 1
LOOKUP_TABLE default
0 0 0 0 0 0 0 0 0 0 0 0 0 0 0 0 0 0 0 0 0 0 0 0 0 0 0 0 0 0 0 0 0 0 0 0 0 0 0 0 0 0 0 0 0 0 0 0 0 0 0 0 0 0 0 0 0 0 0 0 0 0 0 0 0 0 0 0 0 0 0 0 0 0 0 0 0 0 0 0 0 0 0 0 0 0 0 0 0 0 0 0 0 0 0 0 0 0 0 0 
SCALARS temperature_error double 1
LOOKUP_TABLE default
0 0 0.587785 0.181636 0.587785 0.181636 0.951057 0.293893 0.951057 0.293893 0.951057 0.293893 0.951057 0.293893 0.587785 0.181636 0.587785 0.181636 1.22465e-16 3.78437e-17 0 0 0.181636 -0.475528 0.181636 -0.475528 0.293893 -0.769421 0.293893 -0.769421 0.293893 -0.769421 0.293893 -0.769421 0.181636 -0.475528 0.181636 -0.475528 3.78437e-17 -9.9076e-17 0 0 -0.475528 -0.475528 -0.475528 -0.475528 -0.769421 -0.769421 -0.769421 -0.769421 -0.769421 -0.769421 -0.769421 -0.769421 -0.475528 -0.475528 -0.475528 -0.475528 -9.9076e-17 -9.9076e-17 0 0 -0.475528 0.181636 -0.475528 0.181636 -0.769421 0.293893 -0.769421 0.293893 -0.769421 0.293893 -0.769421 0.293893 -0.475528 0.181636 -0.475528 0.181636 -9.9076e-17 3.78437e-17 0 0 0.181636 0.587785 0.181636 0.587785 0.293893 0.951057 0.293893 0.951057 0.293893 0.951057 0.293893 0.951057 0.181636 0.587785 0.181636 0.587785 3.78437e-17 1.22465e-16 
