# vtk DataFile Version 3.0
#This file was generated by the deal.II library on 2026/6/8 at 18:00:51
ASCII
DATASET UNSTRUCTURED_GRID

POINTS 6400 double
0 0 0
0.025 0 0
0 0.025 0
0.025 0.025 0
0.025 0 0
0.05 0 0
0.025 0.025 0
0.05 0.025 0
0 0.025 0
0.025 0.025 0
0 0.05 0
0.025 0.05 0
0.025 0.025 0
0.05 0.025 0
0.025 0.05 0
0.05 0.05 0
0.05 0 0
0.075 0 0
0.05 0.025 0
0.075 0.025 0
0.075 0 0
0.1 0 0
0.075 0.025 0
0.1 0.025 0
0.05 0.025 0
0.075 0.025 0
0.05 0.05 0
0.075 0.05 0
0.075 0.025 0
0.1 0.025 0
0.075 0.05 0
0.1 0.05 0
0 0.05 0
0.025 0.05 0
0 0.075 0
0.025 0.075 0
0.025 0.05 0
0.05 0.05 0
0.025 0.075 0
0.05 0.075 0
0 0.075 0
0.025 0.075 0
0 0.1 0
0.025 0.1 0
0.025 0.075 0
0.05 0.075 0
0.025 0.1 0
0.05 0.1 0
0.05 0.05 0
0.075 0.05 0
0.05 0.075 0
0.075 0.075 0
0.075 0.05 0
0.1 0.05 0
0.075 0.075 0
0.1 0.075 0
0.05 0.075 0
0.075 0.075 0
0.05 0.1 0
0.075 0.1 0
0.075 0.075 0
0.1 0.075 0
0.075 0.1 0
0.1 0.1 0
0.1 0 0
0.125 0 0
0.1 0.025 0
0.125 0.025 0
0.125 0 0
0.15 0 0
0.125 0.025 0
0.15 0.025 0
0.1 0.025 0
0.125 0.025 0
0.1 0.05 0
0.125 0.05 0
0.125 0.025 0
0.15 0.025 0
0.125 0.05 0
0.15 0.05 0
0.15 0 0
0.175 0 0
0.15 0.025 0
0.175 0.025 0
0.175 0 0
0.2 0 0
0.175 0.025 0
0.2 0.025 0
0.15 0.025 0
0.175 0.025 0
0.15 0.05 0
0.175 0.05 0
0.175 0.025 0
0.2 0.025 0
0.175 0.05 0
0.2 0.05 0
0.1 0.05 0
0.125 0.05 0
0.1 0.075 0
0.125 0.075 0
0.125 0.05 0
0.15 0.05 0
0.125 0.075 0
0.15 0.075 0
0.1 0.075 0
0.125 0.075 0
0.1 0.1 0
0.125 0.1 0
0.125 0.075 0
0.15 0.075 0
0.125 0.1 0
0.15 0.1 0
0.15 0.05 0
0.175 0.05 0
0.15 0.075 0
0.175 0.075 0
0.175 0.05 0
0.2 0.05 0
0.175 0.075 0
0.2 0.075 0
0.15 0.075 0
0.175 0.075 0
0.15 0.1 0
0.175 0.1 0
0.175 0.075 0
0.2 0.075 0
0.175 0.1 0
0.2 0.1 0
0 0.1 0
0.025 0.1 0
0 0.125 0
0.025 0.125 0
0.025 0.1 0
0.05 0.1 0
0.025 0.125 0
0.05 0.125 0
0 0.125 0
0.025 0.125 0
0 0.15 0
0.025 0.15 0
0.025 0.125 0
0.05 0.125 0
0.025 0.15 0
0.05 0.15 0
0.05 0.1 0
0.075 0.1 0
0.05 0.125 0
0.075 0.125 0
0.075 0.1 0
0.1 0.1 0
0.075 0.125 0
0.1 0.125 0
0.05 0.125 0
0.075 0.125 0
0.05 0.15 0
0.075 0.15 0
0.075 0.125 0
0.1 0.125 0
0.075 0.15 0
0.1 0.15 0
0 0.15 0
0.025 0.15 0
0 0.175 0
0.025 0.175 0
0.025 0.15 0
0.05 0.15 0
0.025 0.175 0
0.05 0.175 0
0 0.175 0
0.025 0.175 0
0 0.2 0
0.025 0.2 0
0.025 0.175 0
0.05 0.175 0
0.025 0.2 0
0.05 0.2 0
0.05 0.15 0
0.075 0.15 0
0.05 0.175 0
0.075 0.175 0
0.075 0.15 0
0.1 0.15 0
0.075 0.175 0
0.1 0.175 0
0.05 0.175 0
0.075 0.175 0
0.05 0.2 0
0.075 0.2 0
0.075 0.175 0
0.1 0.175 0
0.075 0.2 0
0.1 0.2 0
0.1 0.1 0
0.125 0.1 0
0.1 0.125 0
0.125 0.125 0
0.125 0.1 0
0.15 0.1 0
0.125 0.125 0
0.15 0.125 0
0.1 0.125 0
0.125 0.125 0
0.1 0.15 0
0.125 0.15 0
0.125 0.125 0
0.15 0.125 0
0.125 0.15 0
0.15 0.15 0
0.15 0.1 0
0.175 0.1 0
0.15 0.125 0
0.175 0.125 0
0.175 0.1 0
0.2 0.1 0
0.175 0.125 0
0.2 0.125 0
0.15 0.125 0
0.175 0.125 0
0.15 0.15 0
0.175 0.15 0
0.175 0.125 0
0.2 0.125 0
0.175 0.15 0
0.2 0.15 0
0.1 0.15 0
0.125 0.15 0
0.1 0.175 0
0.125 0.175 0
0.125 0.15 0
0.15 0.15 0
0.125 0.175 0
0.15 0.175 0
0.1 0.175 0
0.125 0.175 0
0.1 0.2 0
0.125 0.2 0
0.125 0.175 0
0.15 0.175 0
0.125 0.2 0
0.15 0.2 0
0.15 0.15 0
0.175 0.15 0
0.15 0.175 0
0.175 0.175 0
0.175 0.15 0
0.2 0.15 0
0.175 0.175 0
0.2 0.175 0
0.15 0.175 0
0.175 0.175 0
0.15 0.2 0
0.175 0.2 0
0.175 0.175 0
0.2 0.175 0
0.175 0.2 0
0.2 0.2 0
0 0.2 0
0.025 0.2 0
0 0.225 0
0.025 0.225 0
0.025 0.2 0
0.05 0.2 0
0.025 0.225 0
0.05 0.225 0
0 0.225 0
0.025 0.225 0
0 0.25 0
0.025 0.25 0
0.025 0.225 0
0.05 0.225 0
0.025 0.25 0
0.05 0.25 0
0.05 0.2 0
0.075 0.2 0
0.05 0.225 0
0.075 0.225 0
0.075 0.2 0
0.1 0.2 0
0.075 0.225 0
0.1 0.225 0
0.05 0.225 0
0.075 0.225 0
0.05 0.25 0
0.075 0.25 0
0.075 0.225 0
0.1 0.225 0
0.075 0.25 0
0.1 0.25 0
0 0.25 0
0.025 0.25 0
0 0.275 0
0.025 0.275 0
0.025 0.25 0
0.05 0.25 0
0.025 0.275 0
0.05 0.275 0
0 0.275 0
0.025 0.275 0
0 0.3 0
0.025 0.3 0
0.025 0.275 0
0.05 0.275 0
0.025 0.3 0
0.05 0.3 0
0.05 0.25 0
0.075 0.25 0
0.05 0.275 0
0.075 0.275 0
0.075 0.25 0
0.1 0.25 0
0.075 0.275 0
0.1 0.275 0
0.05 0.275 0
0.075 0.275 0
0.05 0.3 0
0.075 0.3 0
0.075 0.275 0
0.1 0.275 0
0.075 0.3 0
0.1 0.3 0
0.1 0.2 0
0.125 0.2 0
0.1 0.225 0
0.125 0.225 0
0.125 0.2 0
0.15 0.2 0
0.125 0.225 0
0.15 0.225 0
0.1 0.225 0
0.125 0.225 0
0.1 0.25 0
0.125 0.25 0
0.125 0.225 0
0.15 0.225 0
0.125 0.25 0
0.15 0.25 0
0.15 0.2 0
0.175 0.2 0
0.15 0.225 0
0.175 0.225 0
0.175 0.2 0
0.2 0.2 0
0.175 0.225 0
0.2 0.225 0
0.15 0.225 0
0.175 0.225 0
0.15 0.25 0
0.175 0.25 0
0.175 0.225 0
0.2 0.225 0
0.175 0.25 0
0.2 0.25 0
0.1 0.25 0
0.125 0.25 0
0.1 0.275 0
0.125 0.275 0
0.125 0.25 0
0.15 0.25 0
0.125 0.275 0
0.15 0.275 0
0.1 0.275 0
0.125 0.275 0
0.1 0.3 0
0.125 0.3 0
0.125 0.275 0
0.15 0.275 0
0.125 0.3 0
0.15 0.3 0
0.15 0.25 0
0.175 0.25 0
0.15 0.275 0
0.175 0.275 0
0.175 0.25 0
0.2 0.25 0
0.175 0.275 0
0.2 0.275 0
0.15 0.275 0
0.175 0.275 0
0.15 0.3 0
0.175 0.3 0
0.175 0.275 0
0.2 0.275 0
0.175 0.3 0
0.2 0.3 0
0 0.3 0
0.025 0.3 0
0 0.325 0
0.025 0.325 0
0.025 0.3 0
0.05 0.3 0
0.025 0.325 0
0.05 0.325 0
0 0.325 0
0.025 0.325 0
0 0.35 0
0.025 0.35 0
0.025 0.325 0
0.05 0.325 0
0.025 0.35 0
0.05 0.35 0
0.05 0.3 0
0.075 0.3 0
0.05 0.325 0
0.075 0.325 0
0.075 0.3 0
0.1 0.3 0
0.075 0.325 0
0.1 0.325 0
0.05 0.325 0
0.075 0.325 0
0.05 0.35 0
0.075 0.35 0
0.075 0.325 0
0.1 0.325 0
0.075 0.35 0
0.1 0.35 0
0 0.35 0
0.025 0.35 0
0 0.375 0
0.025 0.375 0
0.025 0.35 0
0.05 0.35 0
0.025 0.375 0
0.05 0.375 0
0 0.375 0
0.025 0.375 0
0 0.4 0
0.025 0.4 0
0.025 0.375 0
0.05 0.375 0
0.025 0.4 0
0.05 0.4 0
0.05 0.35 0
0.075 0.35 0
0.05 0.375 0
0.075 0.375 0
0.075 0.35 0
0.1 0.35 0
0.075 0.375 0
0.1 0.375 0
0.05 0.375 0
0.075 0.375 0
0.05 0.4 0
0.075 0.4 0
0.075 0.375 0
0.1 0.375 0
0.075 0.4 0
0.1 0.4 0
0.1 0.3 0
0.125 0.3 0
0.1 0.325 0
0.125 0.325 0
0.125 0.3 0
0.15 0.3 0
0.125 0.325 0
0.15 0.325 0
0.1 0.325 0
0.125 0.325 0
0.1 0.35 0
0.125 0.35 0
0.125 0.325 0
0.15 0.325 0
0.125 0.35 0
0.15 0.35 0
0.15 0.3 0
0.175 0.3 0
0.15 0.325 0
0.175 0.325 0
0.175 0.3 0
0.2 0.3 0
0.175 0.325 0
0.2 0.325 0
0.15 0.325 0
0.175 0.325 0
0.15 0.35 0
0.175 0.35 0
0.175 0.325 0
0.2 0.325 0
0.175 0.35 0
0.2 0.35 0
0.1 0.35 0
0.125 0.35 0
0.1 0.375 0
0.125 0.375 0
0.125 0.35 0
0.15 0.35 0
0.125 0.375 0
0.15 0.375 0
0.1 0.375 0
0.125 0.375 0
0.1 0.4 0
0.125 0.4 0
0.125 0.375 0
0.15 0.375 0
0.125 0.4 0
0.15 0.4 0
0.15 0.35 0
0.175 0.35 0
0.15 0.375 0
0.175 0.375 0
0.175 0.35 0
0.2 0.35 0
0.175 0.375 0
0.2 0.375 0
0.15 0.375 0
0.175 0.375 0
0.15 0.4 0
0.175 0.4 0
0.175 0.375 0
0.2 0.375 0
0.175 0.4 0
0.2 0.4 0
0 0.4 0
0.025 0.4 0
0 0.425 0
0.025 0.425 0
0.025 0.4 0
0.05 0.4 0
0.025 0.425 0
0.05 0.425 0
0 0.425 0
0.025 0.425 0
0 0.45 0
0.025 0.45 0
0.025 0.425 0
0.05 0.425 0
0.025 0.45 0
0.05 0.45 0
0.05 0.4 0
0.075 0.4 0
0.05 0.425 0
0.075 0.425 0
0.075 0.4 0
0.1 0.4 0
0.075 0.425 0
0.1 0.425 0
0.05 0.425 0
0.075 0.425 0
0.05 0.45 0
0.075 0.45 0
0.075 0.425 0
0.1 0.425 0
0.075 0.45 0
0.1 0.45 0
0 0.45 0
0.025 0.45 0
0 0.475 0
0.025 0.475 0
0.025 0.45 0
0.05 0.45 0
0.025 0.475 0
0.05 0.475 0
0 0.475 0
0.025 0.475 0
0 0.5 0
0.025 0.5 0
0.025 0.475 0
0.05 0.475 0
0.025 0.5 0
0.05 0.5 0
0.05 0.45 0
0.075 0.45 0
0.05 0.475 0
0.075 0.475 0
0.075 0.45 0
0.1 0.45 0
0.075 0.475 0
0.1 0.475 0
0.05 0.475 0
0.075 0.475 0
0.05 0.5 0
0.075 0.5 0
0.075 0.475 0
0.1 0.475 0
0.075 0.5 0
0.1 0.5 0
0.1 0.4 0
0.125 0.4 0
0.1 0.425 0
0.125 0.425 0
0.125 0.4 0
0.15 0.4 0
0.125 0.425 0
0.15 0.425 0
0.1 0.425 0
0.125 0.425 0
0.1 0.45 0
0.125 0.45 0
0.125 0.425 0
0.15 0.425 0
0.125 0.45 0
0.15 0.45 0
0.15 0.4 0
0.175 0.4 0
0.15 0.425 0
0.175 0.425 0
0.175 0.4 0
0.2 0.4 0
0.175 0.425 0
0.2 0.425 0
0.15 0.425 0
0.175 0.425 0
0.15 0.45 0
0.175 0.45 0
0.175 0.425 0
0.2 0.425 0
0.175 0.45 0
0.2 0.45 0
0.1 0.45 0
0.125 0.45 0
0.1 0.475 0
0.125 0.475 0
0.125 0.45 0
0.15 0.45 0
0.125 0.475 0
0.15 0.475 0
0.1 0.475 0
0.125 0.475 0
0.1 0.5 0
0.125 0.5 0
0.125 0.475 0
0.15 0.475 0
0.125 0.5 0
0.15 0.5 0
0.15 0.45 0
0.175 0.45 0
0.15 0.475 0
0.175 0.475 0
0.175 0.45 0
0.2 0.45 0
0.175 0.475 0
0.2 0.475 0
0.15 0.475 0
0.175 0.475 0
0.15 0.5 0
0.175 0.5 0
0.175 0.475 0
0.2 0.475 0
0.175 0.5 0
0.2 0.5 0
0 0.5 0
0.025 0.5 0
0 0.525 0
0.025 0.525 0
0.025 0.5 0
0.05 0.5 0
0.025 0.525 0
0.05 0.525 0
0 0.525 0
0.025 0.525 0
0 0.55 0
0.025 0.55 0
0.025 0.525 0
0.05 0.525 0
0.025 0.55 0
0.05 0.55 0
0.05 0.5 0
0.075 0.5 0
0.05 0.525 0
0.075 0.525 0
0.075 0.5 0
0.1 0.5 0
0.075 0.525 0
0.1 0.525 0
0.05 0.525 0
0.075 0.525 0
0.05 0.55 0
0.075 0.55 0
0.075 0.525 0
0.1 0.525 0
0.075 0.55 0
0.1 0.55 0
0 0.55 0
0.025 0.55 0
0 0.575 0
0.025 0.575 0
0.025 0.55 0
0.05 0.55 0
0.025 0.575 0
0.05 0.575 0
0 0.575 0
0.025 0.575 0
0 0.6 0
0.025 0.6 0
0.025 0.575 0
0.05 0.575 0
0.025 0.6 0
0.05 0.6 0
0.05 0.55 0
0.075 0.55 0
0.05 0.575 0
0.075 0.575 0
0.075 0.55 0
0.1 0.55 0
0.075 0.575 0
0.1 0.575 0
0.05 0.575 0
0.075 0.575 0
0.05 0.6 0
0.075 0.6 0
0.075 0.575 0
0.1 0.575 0
0.075 0.6 0
0.1 0.6 0
0.1 0.5 0
0.125 0.5 0
0.1 0.525 0
0.125 0.525 0
0.125 0.5 0
0.15 0.5 0
0.125 0.525 0
0.15 0.525 0
0.1 0.525 0
0.125 0.525 0
0.1 0.55 0
0.125 0.55 0
0.125 0.525 0
0.15 0.525 0
0.125 0.55 0
0.15 0.55 0
0.15 0.5 0
0.175 0.5 0
0.15 0.525 0
0.175 0.525 0
0.175 0.5 0
0.2 0.5 0
0.175 0.525 0
0.2 0.525 0
0.15 0.525 0
0.175 0.525 0
0.15 0.55 0
0.175 0.55 0
0.175 0.525 0
0.2 0.525 0
0.175 0.55 0
0.2 0.55 0
0.1 0.55 0
0.125 0.55 0
0.1 0.575 0
0.125 0.575 0
0.125 0.55 0
0.15 0.55 0
0.125 0.575 0
0.15 0.575 0
0.1 0.575 0
0.125 0.575 0
0.1 0.6 0
0.125 0.6 0
0.125 0.575 0
0.15 0.575 0
0.125 0.6 0
0.15 0.6 0
0.15 0.55 0
0.175 0.55 0
0.15 0.575 0
0.175 0.575 0
0.175 0.55 0
0.2 0.55 0
0.175 0.575 0
0.2 0.575 0
0.15 0.575 0
0.175 0.575 0
0.15 0.6 0
0.175 0.6 0
0.175 0.575 0
0.2 0.575 0
0.175 0.6 0
0.2 0.6 0
0 0.6 0
0.025 0.6 0
0 0.625 0
0.025 0.625 0
0.025 0.6 0
0.05 0.6 0
0.025 0.625 0
0.05 0.625 0
0 0.625 0
0.025 0.625 0
0 0.65 0
0.025 0.65 0
0.025 0.625 0
0.05 0.625 0
0.025 0.65 0
0.05 0.65 0
0.05 0.6 0
0.075 0.6 0
0.05 0.625 0
0.075 0.625 0
0.075 0.6 0
0.1 0.6 0
0.075 0.625 0
0.1 0.625 0
0.05 0.625 0
0.075 0.625 0
0.05 0.65 0
0.075 0.65 0
0.075 0.625 0
0.1 0.625 0
[...]
POINT_DATA 6400
VECTORS velocity double
0 0 0
0.0784591 0 0
0 -0.0784591 0
0.0781956 -0.07822 0
0.0784591 0 0
0.156434 0 0
0.0781956 -0.07822 0
0.155906 -0.0774956 0
0 -0.0784591 0
0.0781956 -0.07822 0
0 -0.156434 0
0.0774741 -0.155949 0
0.0781956 -0.07822 0
0.155906 -0.0774956 0
0.0774741 -0.155949 0
0.154475 -0.154512 0
0.156434 0 0
0.233445 0 0
0.155906 -0.0774956 0
0.232661 -0.0762989 0
0.233445 0 0
0.309017 0 0
0.232661 -0.0762989 0
0.307992 -0.0746303 0
0.155906 -0.0774956 0
0.232661 -0.0762989 0
0.154475 -0.154512 0
0.230536 -0.152131 0
0.232661 -0.0762989 0
0.307992 -0.0746303 0
0.230536 -0.152131 0
0.305183 -0.148805 0
0 -0.156434 0
0.0774741 -0.155949 0
0 -0.233445 0
0.0762784 -0.232721 0
0.0774741 -0.155949 0
0.154475 -0.154512 0
0.0762784 -0.232721 0
0.152096 -0.230586 0
0 -0.233445 0
0.0762784 -0.232721 0
0 -0.309017 0
0.0746122 -0.308067 0
0.0762784 -0.232721 0
0.152096 -0.230586 0
0.0746122 -0.308067 0
0.148775 -0.305246 0
0.154475 -0.154512 0
0.230536 -0.152131 0
0.152096 -0.230586 0
0.226985 -0.227033 0
0.230536 -0.152131 0
0.305183 -0.148805 0
0.226985 -0.227033 0
0.300474 -0.222063 0
0.152096 -0.230586 0
0.226985 -0.227033 0
0.148775 -0.305246 0
0.222022 -0.300533 0
0.226985 -0.227033 0
0.300474 -0.222063 0
0.222022 -0.300533 0
0.293894 -0.293945 0
0.309017 0 0
0.382683 0 0
0.307992 -0.0746303 0
0.381432 -0.0725005 0
0.382683 0 0
0.45399 0 0
0.381432 -0.0725005 0
0.452524 -0.0699208 0
0.307992 -0.0746303 0
0.381432 -0.0725005 0
0.305183 -0.148805 0
0.377948 -0.144557 0
0.381432 -0.0725005 0
0.452524 -0.0699208 0
0.377948 -0.144557 0
0.448381 -0.139412 0
0.45399 0 0
0.522499 0 0
0.452524 -0.0699208 0
0.520827 -0.0669094 0
0.522499 0 0
0.587785 0 0
0.520827 -0.0669094 0
0.585918 -0.0634844 0
0.452524 -0.0699208 0
0.520827 -0.0669094 0
0.448381 -0.139412 0
0.516047 -0.133406 0
0.520827 -0.0669094 0
0.585918 -0.0634844 0
0.516047 -0.133406 0
0.580529 -0.126576 0
0.305183 -0.148805 0
0.377948 -0.144557 0
0.300474 -0.222063 0
0.372105 -0.215718 0
0.377948 -0.144557 0
0.448381 -0.139412 0
0.372105 -0.215718 0
0.441438 -0.208036 0
0.300474 -0.222063 0
0.372105 -0.215718 0
0.293894 -0.293945 0
0.363949 -0.28554 0
0.372105 -0.215718 0
0.441438 -0.208036 0
0.363949 -0.28554 0
0.431759 -0.275371 0
0.448381 -0.139412 0
0.516047 -0.133406 0
0.441438 -0.208036 0
0.508048 -0.199072 0
0.516047 -0.133406 0
0.580529 -0.126576 0
0.508048 -0.199072 0
0.571526 -0.188881 0
0.441438 -0.208036 0
0.508048 -0.199072 0
0.431759 -0.275371 0
0.496908 -0.263508 0
0.508048 -0.199072 0
0.571526 -0.188881 0
0.496908 -0.263508 0
0.558995 -0.25002 0
0 -0.309017 0
0.0746122 -0.308067 0
0 -0.382683 0
0.0724849 -0.381519 0
0.0746122 -0.308067 0
0.148775 -0.305246 0
0.0724849 -0.381519 0
0.144531 -0.378023 0
0 -0.382683 0
0.0724849 -0.381519 0
0 -0.45399 0
0.0699081 -0.452623 0
0.0724849 -0.381519 0
0.144531 -0.378023 0
0.0699081 -0.452623 0
0.139391 -0.448465 0
0.148775 -0.305246 0
0.222022 -0.300533 0
0.144531 -0.378023 0
0.215682 -0.372173 0
0.222022 -0.300533 0
0.293894 -0.293945 0
0.215682 -0.372173 0
0.285496 -0.364008 0
0.144531 -0.378023 0
0.215682 -0.372173 0
0.139391 -0.448465 0
0.208006 -0.441513 0
0.215682 -0.372173 0
0.285496 -0.364008 0
0.208006 -0.441513 0
0.275335 -0.431824 0
0 -0.45399 0
0.0699081 -0.452623 0
0 -0.522499 0
0.0668996 -0.520935 0
0.0699081 -0.452623 0
0.139391 -0.448465 0
0.0668996 -0.520935 0
0.133389 -0.516136 0
0 -0.522499 0
0.0668996 -0.520935 0
0 -0.587785 0
0.0634774 -0.586032 0
0.0668996 -0.520935 0
0.133389 -0.516136 0
0.0634774 -0.586032 0
0.126563 -0.580621 0
0.139391 -0.448465 0
0.208006 -0.441513 0
0.133389 -0.516136 0
0.199048 -0.508128 0
0.208006 -0.441513 0
0.275335 -0.431824 0
0.199048 -0.508128 0
0.263478 -0.496977 0
0.133389 -0.516136 0
0.199048 -0.508128 0
0.126563 -0.580621 0
0.188863 -0.571608 0
0.199048 -0.508128 0
0.263478 -0.496977 0
0.188863 -0.571608 0
0.249998 -0.559067 0
0.293894 -0.293945 0
0.363949 -0.28554 0
0.285496 -0.364008 0
0.353548 -0.353599 0
0.363949 -0.28554 0
0.431759 -0.275371 0
0.353548 -0.353599 0
0.419421 -0.341008 0
0.285496 -0.364008 0
0.353548 -0.353599 0
0.275335 -0.431824 0
0.340966 -0.419478 0
0.353548 -0.353599 0
0.419421 -0.341008 0
0.340966 -0.419478 0
0.404497 -0.404544 0
0.431759 -0.275371 0
0.496908 -0.263508 0
0.419421 -0.341008 0
0.48271 -0.32632 0
0.496908 -0.263508 0
0.558995 -0.25002 0
0.48271 -0.32632 0
0.543025 -0.309617 0
0.419421 -0.341008 0
0.48271 -0.32632 0
0.404497 -0.404544 0
0.465535 -0.387119 0
0.48271 -0.32632 0
0.543025 -0.309617 0
0.465535 -0.387119 0
0.523703 -0.367305 0
0.275335 -0.431824 0
0.340966 -0.419478 0
0.263478 -0.496977 0
0.326286 -0.482771 0
0.340966 -0.419478 0
0.404497 -0.404544 0
0.326286 -0.482771 0
0.387082 -0.465585 0
0.263478 -0.496977 0
0.326286 -0.482771 0
0.249998 -0.559067 0
0.309592 -0.543087 0
0.326286 -0.482771 0
0.387082 -0.465585 0
0.309592 -0.543087 0
0.367278 -0.523754 0
0.404497 -0.404544 0
0.465535 -0.387119 0
0.387082 -0.465585 0
0.445492 -0.445531 0
0.465535 -0.387119 0
0.523703 -0.367305 0
0.445492 -0.445531 0
0.501155 -0.422727 0
0.387082 -0.465585 0
0.445492 -0.445531 0
0.367278 -0.523754 0
0.422699 -0.501194 0
0.445492 -0.445531 0
0.501155 -0.422727 0
0.422699 -0.501194 0
0.475515 -0.475542 0
0 -0.587785 0
0.0634774 -0.586032 0
0 -0.649448 0
0.0596641 -0.647513 0
0.0634774 -0.586032 0
0.126563 -0.580621 0
0.0596641 -0.647513 0
0.118959 -0.641523 0
0 -0.649448 0
0.0596641 -0.647513 0
0 -0.707107 0
0.0554825 -0.704998 0
0.0596641 -0.647513 0
0.118959 -0.641523 0
0.0554825 -0.704998 0
0.11062 -0.698469 0
0.126563 -0.580621 0
0.188863 -0.571608 0
0.118959 -0.641523 0
0.177515 -0.631564 0
0.188863 -0.571608 0
0.249998 -0.559067 0
0.177515 -0.631564 0
0.234977 -0.61771 0
0.118959 -0.641523 0
0.177515 -0.631564 0
0.11062 -0.698469 0
0.165072 -0.687626 0
0.177515 -0.631564 0
0.234977 -0.61771 0
0.165072 -0.687626 0
0.218508 -0.672544 0
0 -0.707107 0
0.0554825 -0.704998 0
0 -0.760406 0
0.0509593 -0.758133 0
0.0554825 -0.704998 0
0.11062 -0.698469 0
0.0509593 -0.758133 0
0.1016 -0.751106 0
0 -0.760406 0
0.0509593 -0.758133 0
0 -0.809017 0
0.0461216 -0.80659 0
0.0509593 -0.758133 0
0.1016 -0.751106 0
0.0461216 -0.80659 0
0.0919543 -0.799112 0
0.11062 -0.698469 0
0.165072 -0.687626 0
0.1016 -0.751106 0
0.151614 -0.739448 0
0.165072 -0.687626 0
0.218508 -0.672544 0
0.151614 -0.739448 0
0.200693 -0.723231 0
0.1016 -0.751106 0
0.151614 -0.739448 0
0.0919543 -0.799112 0
0.13722 -0.786711 0
0.151614 -0.739448 0
0.200693 -0.723231 0
0.13722 -0.786711 0
0.181639 -0.769458 0
0.249998 -0.559067 0
0.309592 -0.543087 0
0.234977 -0.61771 0
0.290992 -0.600054 0
0.309592 -0.543087 0
0.367278 -0.523754 0
0.290992 -0.600054 0
0.345212 -0.578692 0
0.234977 -0.61771 0
0.290992 -0.600054 0
0.218508 -0.672544 0
0.270596 -0.653321 0
0.290992 -0.600054 0
0.345212 -0.578692 0
0.270596 -0.653321 0
0.321016 -0.630062 0
0.367278 -0.523754 0
0.422699 -0.501194 0
0.345212 -0.578692 0
0.397304 -0.553767 0
0.422699 -0.501194 0
0.475515 -0.475542 0
0.397304 -0.553767 0
0.446946 -0.525424 0
0.345212 -0.578692 0
0.397304 -0.553767 0
0.321016 -0.630062 0
0.369456 -0.602925 0
0.397304 -0.553767 0
0.446946 -0.525424 0
0.369456 -0.602925 0
0.415619 -0.572066 0
0.218508 -0.672544 0
0.270596 -0.653321 0
0.200693 -0.723231 0
0.248534 -0.702558 0
0.270596 -0.653321 0
0.321016 -0.630062 0
0.248534 -0.702558 0
0.294843 -0.677547 0
0.200693 -0.723231 0
0.248534 -0.702558 0
0.181639 -0.769458 0
0.224939 -0.747463 0
0.248534 -0.702558 0
0.294843 -0.677547 0
0.224939 -0.747463 0
0.266851 -0.720854 0
0.321016 -0.630062 0
0.369456 -0.602925 0
0.294843 -0.677547 0
0.339334 -0.648365 0
0.369456 -0.602925 0
0.415619 -0.572066 0
0.339334 -0.648365 0
0.381733 -0.615181 0
0.294843 -0.677547 0
0.339334 -0.648365 0
0.266851 -0.720854 0
0.307118 -0.689807 0
0.339334 -0.648365 0
0.381733 -0.615181 0
0.307118 -0.689807 0
0.345491 -0.654502 0
0 -0.809017 0
0.0461216 -0.80659 0
0 -0.85264 0
0.041 -0.850073 0
0.0461216 -0.80659 0
0.0919543 -0.799112 0
0.041 -0.850073 0
0.0817425 -0.842191 0
0 -0.85264 0
0.041 -0.850073 0
0 -0.891007 0
0.0356254 -0.888313 0
0.041 -0.850073 0
0.0817425 -0.842191 0
0.0356254 -0.888313 0
0.0710262 -0.880076 0
0.0919543 -0.799112 0
0.13722 -0.786711 0
0.0817425 -0.842191 0
0.121981 -0.829123 0
0.13722 -0.786711 0
0.181639 -0.769458 0
0.121981 -0.829123 0
0.161468 -0.810939 0
0.0817425 -0.842191 0
0.121981 -0.829123 0
0.0710262 -0.880076 0
0.10599 -0.866422 0
0.121981 -0.829123 0
0.161468 -0.810939 0
0.10599 -0.866422 0
0.1403 -0.847421 0
0 -0.891007 0
0.0356254 -0.888313 0
0 -0.92388 0
0.0300314 -0.921075 0
0.0356254 -0.888313 0
0.0710262 -0.880076 0
0.0300314 -0.921075 0
0.0598729 -0.912536 0
0 -0.92388 0
0.0300314 -0.921075 0
0 -0.951057 0
0.0242521 -0.948157 0
0.0300314 -0.921075 0
0.0598729 -0.912536 0
0.0242521 -0.948157 0
0.0483501 -0.939369 0
0.0710262 -0.880076 0
0.10599 -0.866422 0
0.0598729 -0.912536 0
0.089346 -0.898378 0
0.10599 -0.866422 0
0.1403 -0.847421 0
0.089346 -0.898378 0
0.118268 -0.878677 0
0.0598729 -0.912536 0
0.089346 -0.898378 0
0.0483501 -0.939369 0
0.0721508 -0.924796 0
0.089346 -0.898378 0
0.118268 -0.878677 0
0.0721508 -0.924796 0
0.0955065 -0.904515 0
0.181639 -0.769458 0
0.224939 -0.747463 0
0.161468 -0.810939 0
0.199958 -0.787758 0
0.224939 -0.747463 0
0.266851 -0.720854 0
0.199958 -0.787758 0
0.237216 -0.759717 0
0.161468 -0.810939 0
0.199958 -0.787758 0
0.1403 -0.847421 0
0.173744 -0.823197 0
0.199958 -0.787758 0
0.237216 -0.759717 0
0.173744 -0.823197 0
0.206117 -0.793894 0
0.266851 -0.720854 0
0.307118 -0.689807 0
0.237216 -0.759717 0
0.273011 -0.726995 0
0.307118 -0.689807 0
0.345491 -0.654502 0
0.273011 -0.726995 0
0.307122 -0.689788 0
0.237216 -0.759717 0
0.273011 -0.726995 0
0.206117 -0.793894 0
0.237219 -0.759701 0
0.273011 -0.726995 0
0.307122 -0.689788 0
0.237219 -0.759701 0
0.266859 -0.72082 0
0.1403 -0.847421 0
0.173744 -0.823197 0
0.118268 -0.878677 0
0.146461 -0.85356 0
0.173744 -0.823197 0
0.206117 -0.793894 0
0.146461 -0.85356 0
0.17375 -0.823177 0
0.118268 -0.878677 0
0.146461 -0.85356 0
0.0955065 -0.904515 0
0.118273 -0.87866 0
0.146461 -0.85356 0
0.17375 -0.823177 0
0.118273 -0.87866 0
0.14031 -0.847384 0
0.206117 -0.793894 0
0.237219 -0.759701 0
0.17375 -0.823177 0
0.199968 -0.787722 0
0.237219 -0.759701 0
0.266859 -0.72082 0
0.199968 -0.787722 0
0.224953 -0.747408 0
0.17375 -0.823177 0
0.199968 -0.787722 0
0.14031 -0.847384 0
0.161482 -0.810887 0
0.199968 -0.787722 0
0.224953 -0.747408 0
0.161482 -0.810887 0
0.181658 -0.769388 0
0 -0.951057 0
0.0242521 -0.948157 0
0 -0.97237 0
0.0183235 -0.969393 0
0.0242521 -0.948157 0
0.0483501 -0.939369 0
0.0183235 -0.969393 0
0.0365299 -0.960411 0
0 -0.97237 0
0.0183235 -0.969393 0
0 -0.987688 0
0.0122817 -0.984653 0
0.0183235 -0.969393 0
0.0365299 -0.960411 0
0.0122817 -0.984653 0
0.024484 -0.975532 0
0.0483501 -0.939369 0
0.0721508 -0.924796 0
0.0365299 -0.960411 0
0.0545118 -0.945511 0
0.0721508 -0.924796 0
0.0955065 -0.904515 0
0.0545118 -0.945511 0
0.0721574 -0.924777 0
0.0365299 -0.960411 0
0.0545118 -0.945511 0
0.024484 -0.975532 0
0.036536 -0.960397 0
0.0545118 -0.945511 0
0.0721574 -0.924777 0
0.036536 -0.960397 0
0.0483625 -0.939337 0
0 -0.987688 0
0.0122817 -0.984653 0
0 -0.996917 0
0.00616444 -0.993842 0
0.0122817 -0.984653 0
0.024484 -0.975532 0
0.00616444 -0.993842 0
0.0122877 -0.984639 0
0 -0.996917 0
0.00616444 -0.993842 0
0 -1 0
8.92921e-06 -0.996904 0
0.00616444 -0.993842 0
0.0122877 -0.984639 0
8.92921e-06 -0.996904 0
1.51056e-05 -0.987675 0
0.024484 -0.975532 0
0.036536 -0.960397 0
0.0122877 -0.984639 0
0.0183357 -0.969363 0
0.036536 -0.960397 0
0.0483625 -0.939337 0
0.0183357 -0.969363 0
0.0242706 -0.948106 0
0.0122877 -0.984639 0
0.0183357 -0.969363 0
1.51056e-05 -0.987675 0
2.16544e-05 -0.972352 0
0.0183357 -0.969363 0
0.0242706 -0.948106 0
2.16544e-05 -0.972352 0
2.79504e-05 -0.95103 0
0.0955065 -0.904515 0
0.118273 -0.87866 0
0.0721574 -0.924777 0
0.089358 -0.898343 0
0.118273 -0.87866 0
0.14031 -0.847384 0
0.089358 -0.898343 0
0.106007 -0.866367 0
0.0721574 -0.924777 0
0.089358 -0.898343 0
0.0483625 -0.939337 0
0.0598907 -0.912487 0
0.089358 -0.898343 0
0.106007 -0.866367 0
0.0598907 -0.912487 0
0.0710496 -0.880008 0
0.14031 -0.847384 0
0.161482 -0.810887 0
0.106007 -0.866367 0
0.122003 -0.829053 0
0.161482 -0.810887 0
0.181658 -0.769388 0
0.122003 -0.829053 0
0.137246 -0.786624 0
0.106007 -0.866367 0
0.122003 -0.829053 0
0.0710496 -0.880008 0
0.0817701 -0.842107 0
0.122003 -0.829053 0
0.137246 -0.786624 0
0.0817701 -0.842107 0
0.0919863 -0.799011 0
0.0483625 -0.939337 0
0.0598907 -0.912487 0
0.0242706 -0.948106 0
0.0300556 -0.921006 0
0.0598907 -0.912487 0
0.0710496 -0.880008 0
0.0300556 -0.921006 0
0.0356553 -0.888224 0
0.0242706 -0.948106 0
0.0300556 -0.921006 0
2.79504e-05 -0.95103 0
3.39813e-05 -0.923847 0
0.0300556 -0.921006 0
0.0356553 -0.888224 0
3.39813e-05 -0.923847 0
3.97531e-05 -0.890964 0
0.0710496 -0.880008 0
0.0817701 -0.842107 0
0.0356553 -0.888224 0
0.0410349 -0.84997 0
0.0817701 -0.842107 0
0.0919863 -0.799011 0
0.0410349 -0.84997 0
0.0461614 -0.806472 0
0.0356553 -0.888224 0
0.0410349 -0.84997 0
3.97531e-05 -0.890964 0
4.5124e-05 -0.852592 0
0.0410349 -0.84997 0
0.0461614 -0.806472 0
4.5124e-05 -0.852592 0
5.01362e-05 -0.808961 0
0 -1 0
8.92921e-06 -0.996904 0
0 -0.996917 0
-0.00614649 -0.993821 0
8.92921e-06 -0.996904 0
1.51056e-05 -0.987675 0
-0.00614649 -0.993821 0
-0.0122572 -0.984622 0
0 -0.996917 0
-0.00614649 -0.993821 0
0 -0.987688 0
-0.0122642 -0.984611 0
-0.00614649 -0.993821 0
-0.0122572 -0.984622 0
-0.0122642 -0.984611 0
-0.0244544 -0.975499 0
1.51056e-05 -0.987675 0
2.16544e-05 -0.972352 0
-0.0122572 -0.984622 0
-0.018292 -0.969346 0
2.16544e-05 -0.972352 0
2.79504e-05 -0.95103 0
-0.018292 -0.969346 0
-0.0242141 -0.94809 0
-0.0122572 -0.984622 0
-0.018292 -0.969346 0
-0.0244544 -0.975499 0
-0.0364936 -0.960365 0
-0.018292 -0.969346 0
-0.0242141 -0.94809 0
-0.0364936 -0.960365 0
-0.0483078 -0.939307 0
0 -0.987688 0
-0.0122642 -0.984611 0
0 -0.97237 0
-0.0183063 -0.969332 0
-0.0122642 -0.984611 0
-0.0244544 -0.975499 0
-0.0183063 -0.969332 0
-0.0365007 -0.960363 0
0 -0.97237 0
-0.0183063 -0.969332 0
0 -0.951057 0
-0.0242356 -0.948077 0
-0.0183063 -0.969332 0
-0.0365007 -0.960363 0
-0.0242356 -0.948077 0
-0.0483224 -0.939306 0
-0.0244544 -0.975499 0
-0.0364936 -0.960365 0
-0.0365007 -0.960363 0
-0.0544699 -0.945464 0
-0.0364936 -0.960365 0
-0.0483078 -0.939307 0
-0.0544699 -0.945464 0
-0.0721034 -0.924732 0
-0.0365007 -0.960363 0
-0.0544699 -0.945464 0
-0.0483224 -0.939306 0
-0.0721112 -0.924734 0
-0.0544699 -0.945464 0
-0.0721034 -0.924732 0
-0.0721112 -0.924734 0
-0.0954553 -0.904458 0
2.79504e-05 -0.95103 0
3.39813e-05 -0.923847 0
-0.0242141 -0.94809 0
-0.0299869 -0.920992 0
3.39813e-05 -0.923847 0
3.97531e-05 -0.890964 0
-0.0299869 -0.920992 0
-0.0355749 -0.888212 0
-0.0242141 -0.94809 0
-0.0299869 -0.920992 0
-0.0483078 -0.939307 0
-0.0598242 -0.91246 0
-0.0299869 -0.920992 0
-0.0355749 -0.888212 0
-0.0598242 -0.91246 0
-0.0709717 -0.879984 0
3.97531e-05 -0.890964 0
4.5124e-05 -0.852592 0
-0.0355749 -0.888212 0
-0.0409437 -0.849959 0
4.5124e-05 -0.852592 0
5.01362e-05 -0.808961 0
-0.0409437 -0.849959 0
-0.0460601 -0.806462 0
-0.0355749 -0.888212 0
-0.0409437 -0.849959 0
-0.0709717 -0.879984 0
-0.0816817 -0.842085 0
-0.0409437 -0.849959 0
-0.0460601 -0.806462 0
-0.0816817 -0.842085 0
-0.0918881 -0.798992 0
-0.0483078 -0.939307 0
-0.0598242 -0.91246 0
-0.0721034 -0.924732 0
-0.0892922 -0.898303 0
-0.0598242 -0.91246 0
-0.0709717 -0.879984 0
-0.0892922 -0.898303 0
-0.10593 -0.866331 0
-0.0721034 -0.924732 0
-0.0892922 -0.898303 0
-0.0954553 -0.904458 0
-0.118211 -0.878608 0
-0.0892922 -0.898303 0
-0.10593 -0.866331 0
-0.118211 -0.878608 0
-0.140237 -0.847337 0
-0.0709717 -0.879984 0
-0.0816817 -0.842085 0
-0.10593 -0.866331 0
-0.121916 -0.829021 0
-0.0816817 -0.842085 0
-0.0918881 -0.798992 0
-0.121916 -0.829021 0
-0.137149 -0.786597 0
-0.10593 -0.866331 0
-0.121916 -0.829021 0
-0.140237 -0.847337 0
-0.161399 -0.810846 0
-0.121916 -0.829021 0
-0.137149 -0.786597 0
-0.161399 -0.810846 0
-0.181566 -0.769352 0
0 -0.951057 0
-0.0242356 -0.948077 0
0 -0.92388 0
-0.0300156 -0.920978 0
-0.0242356 -0.948077 0
-0.0483224 -0.939306 0
-0.0300156 -0.920978 0
-0.0598463 -0.912459 0
0 -0.92388 0
-0.0300156 -0.920978 0
0 -0.891007 0
-0.0356107 -0.888201 0
-0.0300156 -0.920978 0
-0.0598463 -0.912459 0
-0.0356107 -0.888201 0
-0.0710016 -0.879988 0
-0.0483224 -0.939306 0
-0.0721112 -0.924734 0
-0.0598463 -0.912459 0
-0.0893079 -0.898304 0
-0.0721112 -0.924734 0
-0.0954553 -0.904458 0
-0.0893079 -0.898304 0
-0.118219 -0.878607 0
-0.0598463 -0.912459 0
-0.0893079 -0.898304 0
-0.0710016 -0.879988 0
-0.105955 -0.866336 0
-0.0893079 -0.898304 0
-0.118219 -0.878607 0
-0.105955 -0.866336 0
-0.140254 -0.84734 0
0 -0.891007 0
-0.0356107 -0.888201 0
0 -0.85264 0
-0.0409864 -0.84995 0
-0.0356107 -0.888201 0
-0.0710016 -0.879988 0
-0.0409864 -0.84995 0
-0.0817195 -0.842091 0
0 -0.85264 0
-0.0409864 -0.84995 0
0 -0.809017 0
-0.0461096 -0.806458 0
-0.0409864 -0.84995 0
-0.0817195 -0.842091 0
-0.0461096 -0.806458 0
-0.0919339 -0.799004 0
-0.0710016 -0.879988 0
-0.105955 -0.866336 0
-0.0817195 -0.842091 0
-0.121948 -0.829027 0
-0.105955 -0.866336 0
-0.140254 -0.84734 0
-0.121948 -0.829027 0
-0.161425 -0.81085 0
-0.0817195 -0.842091 0
-0.121948 -0.829027 0
-0.0919339 -0.799004 0
-0.137191 -0.786608 0
-0.121948 -0.829027 0
-0.161425 -0.81085 0
-0.137191 -0.786608 0
-0.181602 -0.769362 0
-0.0954553 -0.904458 0
-0.118211 -0.878608 0
-0.118219 -0.878607 0
-0.146401 -0.853497 0
-0.118211 -0.878608 0
-0.140237 -0.847337 0
-0.146401 -0.853497 0
-0.17368 -0.82312 0
-0.118219 -0.878607 0
-0.146401 -0.853497 0
-0.140254 -0.84734 0
-0.173689 -0.823124 0
-0.146401 -0.853497 0
-0.17368 -0.82312 0
-0.173689 -0.823124 0
-0.206053 -0.793829 0
-0.140237 -0.847337 0
-0.161399 -0.810846 0
-0.17368 -0.82312 0
-0.199888 -0.787672 0
-0.161399 -0.810846 0
-0.181566 -0.769352 0
-0.199888 -0.787672 0
-0.224864 -0.747365 0
-0.17368 -0.82312 0
-0.199888 -0.787672 0
-0.206053 -0.793829 0
-0.237146 -0.759643 0
-0.199888 -0.787672 0
-0.224864 -0.747365 0
-0.237146 -0.759643 0
-0.266777 -0.72077 0
-0.140254 -0.84734 0
-0.173689 -0.823124 0
-0.161425 -0.81085 0
-0.199907 -0.787677 0
-0.173689 -0.823124 0
-0.206053 -0.793829 0
-0.199907 -0.787677 0
-0.237156 -0.759644 0
-0.161425 -0.81085 0
-0.199907 -0.787677 0
-0.181602 -0.769362 0
-0.224893 -0.747374 0
-0.199907 -0.787677 0
-0.237156 -0.759644 0
-0.224893 -0.747374 0
-0.266798 -0.720776 0
-0.206053 -0.793829 0
-0.237146 -0.759643 0
-0.237156 -0.759644 0
-0.272942 -0.72693 0
-0.237146 -0.759643 0
-0.266777 -0.72077 0
-0.272942 -0.72693 0
-0.307046 -0.689732 0
-0.237156 -0.759644 0
-0.272942 -0.72693 0
-0.266798 -0.720776 0
-0.307057 -0.689737 0
-0.272942 -0.72693 0
-0.307046 -0.689732 0
-0.307057 -0.689737 0
-0.345423 -0.654442 0
0 -0.809017 0
-0.0461096 -0.806458 0
0 -0.760406 0
-0.0509487 -0.757995 0
-0.0461096 -0.806458 0
-0.0919339 -0.799004 0
-0.0509487 -0.757995 0
-0.101582 -0.750991 0
0 -0.760406 0
-0.0509487 -0.757995 0
0 -0.707107 0
-0.0554738 -0.704858 0
-0.0509487 -0.757995 0
-0.101582 -0.750991 0
-0.0554738 -0.704858 0
-0.110604 -0.698349 0
-0.0919339 -0.799004 0
-0.137191 -0.786608 0
-0.101582 -0.750991 0
-0.151588 -0.73934 0
-0.137191 -0.786608 0
-0.181602 -0.769362 0
-0.151588 -0.73934 0
-0.20066 -0.72313 0
-0.101582 -0.750991 0
-0.151588 -0.73934 0
-0.110604 -0.698349 0
-0.165051 -0.687515 0
-0.151588 -0.73934 0
-0.20066 -0.72313 0
-0.165051 -0.687515 0
-0.218481 -0.672441 0
0 -0.707107 0
-0.0554738 -0.704858 0
0 -0.649448 0
-0.0596573 -0.647376 0
-0.0554738 -0.704858 0
-0.110604 -0.698349 0
-0.0596573 -0.647376 0
-0.118945 -0.641402 0
0 -0.649448 0
-0.0596573 -0.647376 0
0 -0.587785 0
-0.0634729 -0.585903 0
-0.0596573 -0.647376 0
-0.118945 -0.641402 0
-0.0634729 -0.585903 0
-0.126553 -0.580501 0
-0.110604 -0.698349 0
-0.165051 -0.687515 0
-0.118945 -0.641402 0
-0.177498 -0.631452 0
-0.165051 -0.687515 0
-0.218481 -0.672441 0
-0.177498 -0.631452 0
-0.234956 -0.617607 0