# vtk DataFile Version 3.0
#This file was generated by the deal.II library on 2026/6/8 at 18:00:25
ASCII
DATASET UNSTRUCTURED_GRID

POINTS 400 double
0 0 0
0.1 0 0
0 0.1 0
0.1 0.1 0
0.1 0 0
0.2 0 0
0.1 0.1 0
0.2 0.1 0
0 0.1 0
0.1 0.1 0
0 0.2 0
0.1 0.2 0
0.1 0.1 0
0.2 0.1 0
0.1 0.2 0
0.2 0.2 0
0 0.2 0
0.1 0.2 0
0 0.3 0
0.1 0.3 0
0.1 0.2 0
0.2 0.2 0
0.1 0.3 0
0.2 0.3 0
0 0.3 0
0.1 0.3 0
0 0.4 0
0.1 0.4 0
0.1 0.3 0
0.2 0.3 0
0.1 0.4 0
0.2 0.4 0
0 0.4 0
0.1 0.4 0
0 0.5 0
0.1 0.5 0
0.1 0.4 0
0.2 0.4 0
0.1 0.5 0
0.2 0.5 0
0 0.5 0
0.1 0.5 0
0 0.6 0
0.1 0.6 0
0.1 0.5 0
0.2 0.5 0
0.1 0.6 0
0.2 0.6 0
0 0.6 0
0.1 0.6 0
0 0.7 0
0.1 0.7 0
0.1 0.6 0
0.2 0.6 0
0.1 0.7 0
0.2 0.7 0
0 0.7 0
0.1 0.7 0
0 0.8 0
0.1 0.8 0
0.1 0.7 0
0.2 0.7 0
0.1 0.8 0
0.2 0.8 0
0 0.8 0
0.1 0.8 0
0 0.9 0
0.1 0.9 0
0.1 0.8 0
0.2 0.8 0
0.1 0.9 0
0.2 0.9 0
0 0.9 0
0.1 0.9 0
0 1 0
0.1 1 0
0.1 0.9 0
0.2 0.9 0
0.1 1 0
0.2 1 0
0.2 0 0
0.3 0 0
0.2 0.1 0
0.3 0.1 0
0.3 0 0
0.4 0 0
0.3 0.1 0
0.4 0.1 0
0.2 0.1 0
0.3 0.1 0
0.2 0.2 0
0.3 0.2 0
0.3 0.1 0
0.4 0.1 0
0.3 0.2 0
0.4 0.2 0
0.2 0.2 0
0.3 0.2 0
0.2 0.3 0
0.3 0.3 0
0.3 0.2 0
0.4 0.2 0
0.3 0.3 0
0.4 0.3 0
0.2 0.3 0
0.3 0.3 0
0.2 0.4 0
0.3 0.4 0
0.3 0.3 0
0.4 0.3 0
0.3 0.4 0
0.4 0.4 0
0.2 0.4 0
0.3 0.4 0
0.2 0.5 0
0.3 0.5 0
0.3 0.4 0
0.4 0.4 0
0.3 0.5 0
0.4 0.5 0
0.2 0.5 0
0.3 0.5 0
0.2 0.6 0
0.3 0.6 0
0.3 0.5 0
0.4 0.5 0
0.3 0.6 0
0.4 0.6 0
0.2 0.6 0
0.3 0.6 0
0.2 0.7 0
0.3 0.7 0
0.3 0.6 0
0.4 0.6 0
0.3 0.7 0
0.4 0.7 0
0.2 0.7 0
0.3 0.7 0
0.2 0.8 0
0.3 0.8 0
0.3 0.7 0
0.4 0.7 0
0.3 0.8 0
0.4 0.8 0
0.2 0.8 0
0.3 0.8 0
0.2 0.9 0
0.3 0.9 0
0.3 0.8 0
0.4 0.8 0
0.3 0.9 0
0.4 0.9 0
0.2 0.9 0
0.3 0.9 0
0.2 1 0
0.3 1 0
0.3 0.9 0
0.4 0.9 0
0.3 1 0
0.4 1 0
0.4 0 0
0.5 0 0
0.4 0.1 0
0.5 0.1 0
0.5 0 0
0.6 0 0
0.5 0.1 0
0.6 0.1 0
0.4 0.1 0
0.5 0.1 0
0.4 0.2 0
0.5 0.2 0
0.5 0.1 0
0.6 0.1 0
0.5 0.2 0
0.6 0.2 0
0.4 0.2 0
0.5 0.2 0
0.4 0.3 0
0.5 0.3 0
0.5 0.2 0
0.6 0.2 0
0.5 0.3 0
0.6 0.3 0
0.4 0.3 0
0.5 0.3 0
0.4 0.4 0
0.5 0.4 0
0.5 0.3 0
0.6 0.3 0
0.5 0.4 0
0.6 0.4 0
0.4 0.4 0
0.5 0.4 0
0.4 0.5 0
0.5 0.5 0
0.5 0.4 0
0.6 0.4 0
0.5 0.5 0
0.6 0.5 0
0.4 0.5 0
0.5 0.5 0
0.4 0.6 0
0.5 0.6 0
0.5 0.5 0
0.6 0.5 0
0.5 0.6 0
0.6 0.6 0
0.4 0.6 0
0.5 0.6 0
0.4 0.7 0
0.5 0.7 0
0.5 0.6 0
0.6 0.6 0
0.5 0.7 0
0.6 0.7 0
0.4 0.7 0
0.5 0.7 0
0.4 0.8 0
0.5 0.8 0
0.5 0.7 0
0.6 0.7 0
0.5 0.8 0
0.6 0.8 0
0.4 0.8 0
0.5 0.8 0
0.4 0.9 0
0.5 0.9 0
0.5 0.8 0
0.6 0.8 0
0.5 0.9 0
0.6 0.9 0
0.4 0.9 0
0.5 0.9 0
0.4 1 0
0.5 1 0
0.5 0.9 0
0.6 0.9 0
0.5 1 0
0.6 1 0
0.6 0 0
0.7 0 0
0.6 0.1 0
0.7 0.1 0
0.7 0 0
0.8 0 0
0.7 0.1 0
0.8 0.1 0
0.6 0.1 0
0.7 0.1 0
0.6 0.2 0
0.7 0.2 0
0.7 0.1 0
0.8 0.1 0
0.7 0.2 0
0.8 0.2 0
0.6 0.2 0
0.7 0.2 0
0.6 0.3 0
0.7 0.3 0
0.7 0.2 0
0.8 0.2 0
0.7 0.3 0
0.8 0.3 0
0.6 0.3 0
0.7 0.3 0
0.6 0.4 0
0.7 0.4 0
0.7 0.3 0
0.8 0.3 0
0.7 0.4 0
0.8 0.4 0
0.6 0.4 0
0.7 0.4 0
0.6 0.5 0
0.7 0.5 0
0.7 0.4 0
0.8 0.4 0
0.7 0.5 0
0.8 0.5 0
0.6 0.5 0
0.7 0.5 0
0.6 0.6 0
0.7 0.6 0
0.7 0.5 0
0.8 0.5 0
0.7 0.6 0
0.8 0.6 0
0.6 0.6 0
0.7 0.6 0
0.6 0.7 0
0.7 0.7 0
0.7 0.6 0
0.8 0.6 0
0.7 0.7 0
0.8 0.7 0
0.6 0.7 0
0.7 0.7 0
0.6 0.8 0
0.7 0.8 0
0.7 0.7 0
0.8 0.7 0
0.7 0.8 0
0.8 0.8 0
0.6 0.8 0
0.7 0.8 0
0.6 0.9 0
0.7 0.9 0
0.7 0.8 0
0.8 0.8 0
0.7 0.9 0
0.8 0.9 0
0.6 0.9 0
0.7 0.9 0
0.6 1 0
0.7 1 0
0.7 0.9 0
0.8 0.9 0
0.7 1 0
0.8 1 0
0.8 0 0
0.9 0 0
0.8 0.1 0
0.9 0.1 0
0.9 0 0
1 0 0
0.9 0.1 0
1 0.1 0
0.8 0.1 0
0.9 0.1 0
0.8 0.2 0
0.9 0.2 0
0.9 0.1 0
1 0.1 0
0.9 0.2 0
1 0.2 0
0.8 0.2 0
0.9 0.2 0
0.8 0.3 0
0.9 0.3 0
0.9 0.2 0
1 0.2 0
0.9 0.3 0
1 0.3 0
0.8 0.3 0
0.9 0.3 0
0.8 0.4 0
0.9 0.4 0
0.9 0.3 0
1 0.3 0
0.9 0.4 0
1 0.4 0
0.8 0.4 0
0.9 0.4 0
0.8 0.5 0
0.9 0.5 0
0.9 0.4 0
1 0.4 0
0.9 0.5 0
1 0.5 0
0.8 0.5 0
0.9 0.5 0
0.8 0.6 0
0.9 0.6 0
0.9 0.5 0
1 0.5 0
0.9 0.6 0
1 0.6 0
0.8 0.6 0
0.9 0.6 0
0.8 0.7 0
0.9 0.7 0
0.9 0.6 0
1 0.6 0
0.9 0.7 0
1 0.7 0
0.8 0.7 0
0.9 0.7 0
0.8 0.8 0
0.9 0.8 0
0.9 0.7 0
1 0.7 0
0.9 0.8 0
1 0.8 0
0.8 0.8 0
0.9 0.8 0
0.8 0.9 0
0.9 0.9 0
0.9 0.8 0
1 0.8 0
0.9 0.9 0
1 0.9 0
0.8 0.9 0
0.9 0.9 0
0.8 1 0
0.9 1 0
0.9 0.9 0
1 0.9 0
0.9 1 0
1 1 0

CELLS 100 500
4	0	1	3	2
4	4	5	7	6
4	8	9	11	10
4	12	13	15	14
4	16	17	19	18
4	20	21	23	22
4	24	25	27	26
4	28	29	31	30
4	32	33	35	34
4	36	37	39	38
4	40	41	43	42
4	44	45	47	46
4	48	49	51	50
4	52	53	55	54
4	56	57	59	58
4	60	61	63	62
4	64	65	67	66
4	68	69	71	70
4	72	73	75	74
4	76	77	79	78
4	80	81	83	82
4	84	85	87	86
4	88	89	91	90
4	92	93	95	94
4	96	97	99	98
4	100	101	103	102
4	104	105	107	106
4	108	109	111	110
4	112	113	115	114
4	116	117	119	118
4	120	121	123	122
4	124	125	127	126
4	128	129	131	130
4	132	133	135	134
4	136	137	139	138
4	140	141	143	142
4	144	145	147	146
4	148	149	151	150
4	152	153	155	154
4	156	157	159	158
4	160	161	163	162
4	164	165	167	166
4	168	169	171	170
4	172	173	175	174
4	176	177	179	178
4	180	181	183	182
4	184	185	187	186
4	188	189	191	190
4	192	193	195	194
4	196	197	199	198
4	200	201	203	202
4	204	205	207	206
4	208	209	211	210
4	212	213	215	214
4	216	217	219	218
4	220	221	223	222
4	224	225	227	226
4	228	229	231	230
4	232	233	235	234
4	236	237	239	238
4	240	241	243	242
4	244	245	247	246
4	248	249	251	250
4	252	253	255	254
4	256	257	259	258
4	260	261	263	262
4	264	265	267	266
4	268	269	271	270
4	272	273	275	274
4	276	277	279	278
4	280	281	283	282
4	284	285	287	286
4	288	289	291	290
4	292	293	295	294
4	296	297	299	298
4	300	301	303	302
4	304	305	307	306
4	308	309	311	310
4	312	313	315	314
4	316	317	319	318
4	320	321	323	322
4	324	325	327	326
4	328	329	331	330
4	332	333	335	334
4	336	337	339	338
4	340	341	343	342
4	344	345	347	346
4	348	349	351	350
4	352	353	355	354
4	356	357	359	358
4	360	361	363	362
4	364	365	367	366
4	368	369	371	370
4	372	373	375	374
4	376	377	379	378
4	380	381	383	382
4	384	385	387	386
4	388	389	391	390
4	392	393	395	394
4	396	397	399	398

CELL_TYPES 100
 9 9 9 9 9 9 9 9 9 9 9 9 9 9 9 9 9 9 9 9 9 9 9 9 9 9 9 9 9 9 9 9 9 9 9 9 9 9 9 9 9 9 9 9 9 9 9 9 9 9 9 9 9 9 9 9 9 9 9 9 9 9 9 9 9 9 9 9 9 9 9 9 9 9 9 9 9 9 9 9 9 9 9 9 9 9 9 9 9 9 9 9 9 9 9 9 9 9 9 9
POINT_DATA 400
VECTORS velocity double
0 0 0
0.309017 0 0
0 -0.309017 0
0.292956 -0.295095 0
0.309017 0 0
0.587785 0 0
0.292956 -0.295095 0
0.557672 -0.249414 0
0 -0.309017 0
0.292956 -0.295095 0
0 -0.587785 0
0.249124 -0.56054 0
0.292956 -0.295095 0
0.557672 -0.249414 0
0.249124 -0.56054 0
0.472809 -0.473064 0
0 -0.587785 0
0.249124 -0.56054 0
0 -0.809017 0
0.181504 -0.76955 0
0.249124 -0.56054 0
0.472809 -0.473064 0
0.181504 -0.76955 0
0.344441 -0.650204 0
0 -0.809017 0
0.181504 -0.76955 0
0 -0.951057 0
0.0955753 -0.902465 0
0.181504 -0.76955 0
0.344441 -0.650204 0
0.0955753 -0.902465 0
0.181239 -0.764216 0
0 -0.951057 0
0.0955753 -0.902465 0
0 -1 0
0.0013238 -0.947428 0
0.0955753 -0.902465 0
0.181239 -0.764216 0
0.0013238 -0.947428 0
0.00238298 -0.803288 0
0 -1 0
0.0013238 -0.947428 0
0 -0.951057 0
-0.093701 -0.900544 0
0.0013238 -0.947428 0
0.00238298 -0.803288 0
-0.093701 -0.900544 0
-0.178381 -0.763455 0
0 -0.951057 0
-0.093701 -0.900544 0
0 -0.809017 0
-0.179545 -0.766105 0
-0.093701 -0.900544 0
-0.178381 -0.763455 0
-0.179545 -0.766105 0
-0.341182 -0.649005 0
0 -0.809017 0
-0.179545 -0.766105 0
0 -0.587785 0
-0.248525 -0.557027 0
-0.179545 -0.766105 0
-0.341182 -0.649005 0
-0.248525 -0.557027 0
-0.471646 -0.471896 0
0 -0.587785 0
-0.248525 -0.557027 0
0 -0.309017 0
-0.294233 -0.292695 0
-0.248525 -0.557027 0
-0.471646 -0.471896 0
-0.294233 -0.292695 0
-0.55896 -0.248596 0
0 -0.309017 0
-0.294233 -0.292695 0
0 -1.22465e-16 0
-0.309017 -1.16471e-16 0
-0.294233 -0.292695 0
-0.55896 -0.248596 0
-0.309017 -1.16471e-16 0
-0.587785 -9.9076e-17 0
0.587785 0 0
0.809017 0 0
0.557672 -0.249414 0
0.767079 -0.180609 0
0.809017 0 0
0.951057 0 0
0.767079 -0.180609 0
0.901723 -0.0943397 0
0.557672 -0.249414 0
0.767079 -0.180609 0
0.472809 -0.473064 0
0.650045 -0.343013 0
0.767079 -0.180609 0
0.901723 -0.0943397 0
0.650045 -0.343013 0
0.764527 -0.179371 0
0.472809 -0.473064 0
0.650045 -0.343013 0
0.344441 -0.650204 0
0.474456 -0.472359 0
0.650045 -0.343013 0
0.764527 -0.179371 0
0.474456 -0.472359 0
0.558153 -0.247269 0
0.344441 -0.650204 0
0.474456 -0.472359 0
0.181239 -0.764216 0
0.249484 -0.555678 0
0.474456 -0.472359 0
0.558153 -0.247269 0
0.249484 -0.555678 0
0.29286 -0.290781 0
0.181239 -0.764216 0
0.249484 -0.555678 0
0.00238298 -0.803288 0
0.00299336 -0.584296 0
0.249484 -0.555678 0
0.29286 -0.290781 0
0.00299336 -0.584296 0
0.00297825 -0.305736 0
0.00238298 -0.803288 0
0.00299336 -0.584296 0
-0.178381 -0.763455 0
-0.245984 -0.555784 0
0.00299336 -0.584296 0
0.00297825 -0.305736 0
-0.245984 -0.555784 0
-0.289344 -0.291157 0
-0.178381 -0.763455 0
-0.245984 -0.555784 0
-0.341182 -0.649005 0
-0.470073 -0.47254 0
-0.245984 -0.555784 0
-0.289344 -0.291157 0
-0.470073 -0.47254 0
-0.553195 -0.248083 0
-0.341182 -0.649005 0
-0.470073 -0.47254 0
-0.471646 -0.471896 0
-0.648715 -0.343003 0
-0.470073 -0.47254 0
-0.553195 -0.248083 0
-0.648715 -0.343003 0
-0.762956 -0.180235 0
-0.471646 -0.471896 0
-0.648715 -0.343003 0
-0.55896 -0.248596 0
-0.767684 -0.180643 0
-0.648715 -0.343003 0
-0.762956 -0.180235 0
-0.767684 -0.180643 0
-0.900916 -0.0949227 0
-0.55896 -0.248596 0
-0.767684 -0.180643 0
-0.587785 -9.9076e-17 0
-0.809017 -7.19829e-17 0
-0.767684 -0.180643 0
-0.900916 -0.0949227 0
-0.809017 -7.19829e-17 0
-0.951057 -3.78437e-17 0
0.951057 0 0
1 0 0
0.901723 -0.0943397 0
0.948541 0.000672647 0
1 0 0
0.951057 0 0
0.948541 0.000672647 0
0.903425 0.0952588 0
0.901723 -0.0943397 0
0.948541 0.000672647 0
0.764527 -0.179371 0
0.804435 0.00113402 0
0.948541 0.000672647 0
0.903425 0.0952588 0
0.804435 0.00113402 0
0.765434 0.18069 0
0.764527 -0.179371 0
0.804435 0.00113402 0
0.558153 -0.247269 0
0.586856 0.00117895 0
0.804435 0.00113402 0
0.765434 0.18069 0
0.586856 0.00117895 0
0.558152 0.248588 0
0.558153 -0.247269 0
0.586856 0.00117895 0
0.29286 -0.290781 0
0.307561 0.000817006 0
0.586856 0.00117895 0
0.558152 0.248588 0
0.307561 0.000817006 0
0.292437 0.291759 0
0.29286 -0.290781 0
0.307561 0.000817006 0
0.00297825 -0.305736 0
0.00252403 0.000249298 0
0.307561 0.000817006 0
0.292437 0.291759 0
0.00252403 0.000249298 0
0.00185321 0.306236 0
0.00297825 -0.305736 0
0.00252403 0.000249298 0
-0.289344 -0.291157 0
-0.30441 -0.000305948 0
0.00252403 0.000249298 0
0.00185321 0.306236 0
-0.30441 -0.000305948 0
-0.290055 0.291008 0
-0.289344 -0.291157 0
-0.30441 -0.000305948 0
-0.553195 -0.248083 0
-0.582056 -0.000592806 0
-0.30441 -0.000305948 0
-0.290055 0.291008 0
-0.582056 -0.000592806 0
-0.554092 0.247393 0
-0.553195 -0.248083 0
-0.582056 -0.000592806 0
-0.762956 -0.180235 0
-0.802317 -0.000648409 0
-0.582056 -0.000592806 0
-0.554092 0.247393 0
-0.802317 -0.000648409 0
-0.762849 0.179473 0
-0.762956 -0.180235 0
-0.802317 -0.000648409 0
-0.900916 -0.0949227 0
-0.94642 -0.000415318 0
-0.802317 -0.000648409 0
-0.762849 0.179473 0
-0.94642 -0.000415318 0
-0.900099 0.0943207 0
-0.900916 -0.0949227 0
-0.94642 -0.000415318 0
-0.951057 -3.78437e-17 0
-1 -3.46914e-32 0
-0.94642 -0.000415318 0
-0.900099 0.0943207 0
-1 -3.46914e-32 0
-0.951057 3.78437e-17 0
0.951057 0 0
0.809017 0 0
0.903425 0.0952588 0
0.770161 0.181265 0
0.809017 0 0
0.587785 0 0
0.770161 0.181265 0
0.560919 0.249078 0
0.903425 0.0952588 0
0.770161 0.181265 0
0.765434 0.18069 0
0.651304 0.343927 0
0.770161 0.181265 0
0.560919 0.249078 0
0.651304 0.343927 0
0.473802 0.472587 0
0.765434 0.18069 0
0.651304 0.343927 0
0.558152 0.248588 0
0.474545 0.473429 0
0.651304 0.343927 0
0.473802 0.472587 0
0.474545 0.473429 0
0.344614 0.649736 0
0.558152 0.248588 0
0.474545 0.473429 0
0.292437 0.291759 0
0.248686 0.556444 0
0.474545 0.473429 0
0.344614 0.649736 0
0.248686 0.556444 0
0.180452 0.763931 0
0.292437 0.291759 0
0.248686 0.556444 0
0.00185321 0.306236 0
0.00120465 0.584603 0
0.248686 0.556444 0
0.180452 0.763931 0
0.00120465 0.584603 0
0.000594258 0.803475 0
0.00185321 0.306236 0
0.00120465 0.584603 0
-0.290055 0.291008 0
-0.247186 0.555661 0
0.00120465 0.584603 0
0.000594258 0.803475 0
-0.247186 0.555661 0
-0.179697 0.764181 0
-0.290055 0.291008 0
-0.247186 0.555661 0
-0.554092 0.247393 0
-0.471533 0.472268 0
-0.247186 0.555661 0
-0.179697 0.764181 0
-0.471533 0.472268 0
-0.342491 0.649808 0
-0.554092 0.247393 0
-0.471533 0.472268 0
-0.762849 0.179473 0
-0.648681 0.342779 0
-0.471533 0.472268 0
-0.342491 0.649808 0
-0.648681 0.342779 0
-0.471667 0.472383 0
-0.762849 0.179473 0
-0.648681 0.342779 0
-0.900099 0.0943207 0
-0.766103 0.180271 0
-0.648681 0.342779 0
-0.471667 0.472383 0
-0.766103 0.180271 0
-0.557304 0.248866 0
-0.900099 0.0943207 0
-0.766103 0.180271 0
-0.951057 3.78437e-17 0
-0.809017 7.19829e-17 0
-0.766103 0.180271 0
-0.557304 0.248866 0
-0.809017 7.19829e-17 0
-0.587785 9.9076e-17 0
0.587785 0 0
0.309017 0 0
0.560919 0.249078 0
0.295253 0.293335 0
0.309017 0 0
1.22465e-16 0 0
0.295253 0.293335 0
1.16471e-16 0.309017 0
0.560919 0.249078 0
0.295253 0.293335 0
0.473802 0.472587 0
0.249752 0.557948 0
0.295253 0.293335 0
1.16471e-16 0.309017 0
0.249752 0.557948 0
9.9076e-17 0.587785 0
0.473802 0.472587 0
0.249752 0.557948 0
0.344614 0.649736 0
0.181337 0.767074 0
0.249752 0.557948 0
9.9076e-17 0.587785 0
0.181337 0.767074 0
7.19829e-17 0.809017 0
0.344614 0.649736 0
0.181337 0.767074 0
0.180452 0.763931 0
0.09496 0.901277 0
0.181337 0.767074 0
7.19829e-17 0.809017 0
0.09496 0.901277 0
3.78437e-17 0.951057 0
0.180452 0.763931 0
0.09496 0.901277 0
0.000594258 0.803475 0
0.000228767 0.947528 0
0.09496 0.901277 0
3.78437e-17 0.951057 0
0.000228767 0.947528 0
7.4988e-33 1 0
0.000594258 0.803475 0
0.000228767 0.947528 0
-0.179697 0.764181 0
-0.0946077 0.901867 0
0.000228767 0.947528 0
7.4988e-33 1 0
-0.0946077 0.901867 0
-3.78437e-17 0.951057 0
-0.179697 0.764181 0
-0.0946077 0.901867 0
-0.342491 0.649808 0
-0.180408 0.76829 0
-0.0946077 0.901867 0
-3.78437e-17 0.951057 0
-0.180408 0.76829 0
-7.19829e-17 0.809017 0
-0.342491 0.649808 0
-0.180408 0.76829 0
-0.471667 0.472383 0
-0.248551 0.559335 0
-0.180408 0.76829 0
-7.19829e-17 0.809017 0
-0.248551 0.559335 0
-9.9076e-17 0.587785 0
-0.471667 0.472383 0
-0.248551 0.559335 0
-0.557304 0.248866 0
-0.293074 0.294388 0
-0.248551 0.559335 0
-9.9076e-17 0.587785 0
-0.293074 0.294388 0
-1.16471e-16 0.309017 0
-0.557304 0.248866 0
-0.293074 0.294388 0
-0.587785 9.9076e-17 0
-0.309017 1.16471e-16 0
-0.293074 0.294388 0
-1.16471e-16 0.309017 0
-0.309017 1.16471e-16 0
-1.22465e-16 1.22465e-16 0
VECTORS velocity_error double
0 0 0
0 0 0
0 0 0
0.00093698 0.00120193 0
0 0 0
0 0 0
0.00093698 0.00120193 0
0.00134503 -0.000585641 0
0 0 0
0.00093698 0.00120193 0
0 0 0
0.000875715 0.00152314 0
0.00093698 0.00120193 0
0.00134503 -0.000585641 0
0.000875715 0.00152314 0
0.00271959 -0.00246421 0
0 0 0
0.000875715 0.00152314 0
0 0 0
0.000132079 0.000129083 0
0.000875715 0.00152314 0
0.00271959 -0.00246421 0
0.000132079 0.000129083 0
0.00105024 -0.00430423 0
0 0 0
0.000132079 0.000129083 0
0 0 0
-8.38127e-05 -0.00204316 0
0.000132079 0.000129083 0
0.00105024 -0.00430423 0
-8.38127e-05 -0.00204316 0
0.000396602 -0.00520473 0
0 0 0
-8.38127e-05 -0.00204316 0
0 0 0
-0.0013238 -0.00362891 0
-8.38127e-05 -0.00204316 0
0.000396602 -0.00520473 0
-0.0013238 -0.00362891 0
-0.00238298 -0.00572909 0
0 0 0
-0.0013238 -0.00362891 0
0 0 0
-0.00179055 -0.0039642 0
-0.0013238 -0.00362891 0
-0.00238298 -0.00572909 0
-0.00179055 -0.0039642 0
-0.00325425 -0.00596579 0
0 0 0
-0.00179055 -0.0039642 0
0 0 0
-0.00209085 -0.00331605 0
-0.00179055 -0.0039642 0
-0.00325425 -0.00596579 0
-0.00209085 -0.00331605 0
-0.00430918 -0.00550382 0
0 0 0
-0.00209085 -0.00331605 0
0 0 0
-0.00147546 -0.00198956 0
-0.00209085 -0.00331605 0
-0.00430918 -0.00550382 0
-0.00147546 -0.00198956 0
-0.00388234 -0.00363226 0
0 0 0
-0.00147546 -0.00198956 0
0 0 0
0.000339917 -0.00119719 0
-0.00147546 -0.00198956 0
-0.00388234 -0.00363226 0
0.000339917 -0.00119719 0
-5.68257e-05 -0.0014042 0
0 0 0
0.000339917 -0.00119719 0
0 0 0
0 0 0
0.000339917 -0.00119719 0
-5.68257e-05 -0.0014042 0
0 0 0
0 0 0
0 0 0
0 0 0
0.00134503 -0.000585641 0
0.00234221 -0.00102697 0
0 0 0
0 0 0
0.00234221 -0.00102697 0
0.00278597 -0.00115185 0
0.00134503 -0.000585641 0
0.00234221 -0.00102697 0
0.00271959 -0.00246421 0
0.00446369 -0.00247856 0
0.00234221 -0.00102697 0
0.00278597 -0.00115185 0
0.00446369 -0.00247856 0
0.00489406 -0.00226452 0
0.00271959 -0.00246421 0
0.00446369 -0.00247856 0
0.00105024 -0.00430423 0
0.00107231 -0.00316896 0
0.00446369 -0.00247856 0
0.00489406 -0.00226452 0
0.00107231 -0.00316896 0
0.000863516 -0.00273142 0
0.00105024 -0.00430423 0
0.00107231 -0.00316896 0
0.000396602 -0.00520473 0
0.000515859 -0.00333887 0
0.00107231 -0.00316896 0
0.000863516 -0.00273142 0
0.000515859 -0.00333887 0
0.00103219 -0.00311171 0
0.000396602 -0.00520473 0
0.000515859 -0.00333887 0
-0.00238298 -0.00572909 0
-0.00299336 -0.00348914 0
0.000515859 -0.00333887 0
0.00103219 -0.00311171 0
-0.00299336 -0.00348914 0
-0.00297825 -0.00328121 0
-0.00238298 -0.00572909 0
-0.00299336 -0.00348914 0
-0.00325425 -0.00596579 0
-0.00401611 -0.00323322 0
-0.00299336 -0.00348914 0
-0.00297825 -0.00328121 0
-0.00401611 -0.00323322 0
-0.00454904 -0.00273527 0
-0.00325425 -0.00596579 0
-0.00401611 -0.00323322 0
-0.00430918 -0.00550382 0
-0.00545576 -0.00298874 0
-0.00401611 -0.00323322 0
-0.00454904 -0.00273527 0
-0.00545576 -0.00298874 0
-0.00582242 -0.00191677 0
-0.00430918 -0.00550382 0
-0.00545576 -0.00298874 0
-0.00388234 -0.00363226 0
-0.00579298 -0.00248849 0
-0.00545576 -0.00298874 0
-0.00582242 -0.00191677 0
-0.00579298 -0.00248849 0
-0.00646533 -0.00140039 0
-0.00388234 -0.00363226 0
-0.00579298 -0.00248849 0
-5.68257e-05 -0.0014042 0
-0.00173674 -0.000992388 0
-0.00579298 -0.00248849 0
-0.00646533 -0.00140039 0
-0.00173674 -0.000992388 0
-0.00359211 -0.000568806 0
-5.68257e-05 -0.0014042 0
-0.00173674 -0.000992388 0
0 0 0
0 0 0
-0.00173674 -0.000992388 0
-0.00359211 -0.000568806 0
0 0 0
0 0 0
0 0 0
0 0 0
0.00278597 -0.00115185 0
0.00251596 -0.000672647 0
0 0 0
0 0 0
0.00251596 -0.000672647 0
0.00108397 0.000232682 0
0.00278597 -0.00115185 0
0.00251596 -0.000672647 0
0.00489406 -0.00226452 0
0.00458178 -0.00113402 0
0.00251596 -0.000672647 0
0.00108397 0.000232682 0
0.00458178 -0.00113402 0
0.00398722 0.000945354 0
0.00489406 -0.00226452 0
0.00458178 -0.00113402 0
0.000863516 -0.00273142 0
0.000929392 -0.00117895 0
0.00458178 -0.00113402 0
0.00398722 0.000945354 0
0.000929392 -0.00117895 0
0.000865282 0.0014116 0
0.000863516 -0.00273142 0
0.000929392 -0.00117895 0
0.00103219 -0.00311171 0
0.00145565 -0.000817006 0
0.000929392 -0.00117895 0
0.000865282 0.0014116 0
0.00145565 -0.000817006 0
0.00145596 0.00213318 0
0.00103219 -0.00311171 0
0.00145565 -0.000817006 0
-0.00297825 -0.00328121 0
-0.00252403 -0.000249298 0
0.00145565 -0.000817006 0
0.00145596 0.00213318 0
-0.00252403 -0.000249298 0
-0.00185321 0.0027812 0
-0.00297825 -0.00328121 0
-0.00252403 -0.000249298 0
-0.00454904 -0.00273527 0
-0.00460655 0.000305948 0
-0.00252403 -0.000249298 0
-0.00185321 0.0027812 0
-0.00460655 0.000305948 0
-0.00383782 0.00288488 0
-0.00454904 -0.00273527 0
-0.00460655 0.000305948 0
-0.00582242 -0.00191677 0
-0.00572906 0.000592806 0
-0.00460655 0.000305948 0
-0.00383782 0.00288488 0
-0.00572906 0.000592806 0
-0.00492544 0.00260655 0
-0.00582242 -0.00191677 0
-0.00572906 0.000592806 0
-0.00646533 -0.00140039 0
-0.0067 0.000648409 0
-0.00572906 0.000592806 0
-0.00492544 0.00260655 0
-0.0067 0.000648409 0
-0.00657191 0.00216269 0
-0.00646533 -0.00140039 0
-0.0067 0.000648409 0
-0.00359211 -0.000568806 0
-0.00463622 0.000415318 0
-0.0067 0.000648409 0
-0.00657191 0.00216269 0
-0.00463622 0.000415318 0
-0.00440964 0.0011708 0
-0.00359211 -0.000568806 0
-0.00463622 0.000415318 0
0 0 0
0 0 0
-0.00463622 0.000415318 0
-0.00440964 0.0011708 0
0 0 0
0 0 0
0 0 0
0 0 0
0.00108397 0.000232682 0
-0.000740332 0.000370966 0
0 0 0
0 0 0
-0.000740332 0.000370966 0
-0.0019015 0.000921831 0
0.00108397 0.000232682 0
-0.000740332 0.000370966 0
0.00398722 0.000945354 0
0.00320482 0.00156422 0
-0.000740332 0.000370966 0
-0.0019015 0.000921831 0
0.00320482 0.00156422 0
0.00172667 0.00294157 0
0.00398722 0.000945354 0
0.00320482 0.00156422 0
0.000865282 0.0014116 0
0.000983602 0.00209939 0
0.00320482 0.00156422 0
0.00172667 0.00294157 0
0.000983602 0.00209939 0
0.000877502 0.00477219 0
0.000865282 0.0014116 0
0.000983602 0.00209939 0
0.00145596 0.00213318 0
0.00131428 0.00257347 0
0.000983602 0.00209939 0
0.000877502 0.00477219 0
0.00131428 0.00257347 0
0.00118346 0.00548973 0
0.00145596 0.00213318 0
0.00131428 0.00257347 0
-0.00185321 0.0027812 0
-0.00120465 0.00318264 0
0.00131428 0.00257347 0
0.00118346 0.00548973 0
-0.00120465 0.00318264 0
-0.000594258 0.0055424 0
-0.00185321 0.0027812 0
-0.00120465 0.00318264 0
-0.00383782 0.00288488 0
-0.00281352 0.00335579 0
-0.00120465 0.00318264 0
-0.000594258 0.0055424 0
-0.00281352 0.00335579 0
-0.00193878 0.00523941 0
-0.00383782 0.00288488 0
-0.00281352 0.00335579 0
-0.00492544 0.00260655 0
-0.0039951 0.00325999 0
-0.00281352 0.00335579 0
-0.00193878 0.00523941 0
-0.0039951 0.00325999 0
-0.00300051 0.00470002 0
-0.00492544 0.00260655 0
-0.0039951 0.00325999 0
-0.00657191 0.00216269 0
-0.00582705 0.00271206 0
-0.0039951 0.00325999 0
-0.00300051 0.00470002 0
-0.00582705 0.00271206 0
-0.00386078 0.00314513 0
-0.00657191 0.00216269 0
-0.00582705 0.00271206 0
-0.00440964 0.0011708 0
-0.00331768 0.00136444 0
-0.00582705 0.00271206 0
-0.00386078 0.00314513 0
-0.00331768 0.00136444 0
-0.00171317 0.00113429 0
-0.00440964 0.0011708 0
-0.00331768 0.00136444 0
0 0 0
0 0 0
-0.00331768 0.00136444 0
-0.00171317 0.00113429 0
0 0 0
0 0 0
0 0 0
0 0 0
-0.0019015 0.000921831 0
-0.00136029 0.0005577 0
0 0 0
0 0 0
-0.00136029 0.0005577 0
0 0 0
-0.0019015 0.000921831 0
-0.00136029 0.0005577 0
0.00172667 0.00294157 0
0.000247819 0.00106944 0
-0.00136029 0.0005577 0
0 0 0
0.000247819 0.00106944 0
0 0 0
0.00172667 0.00294157 0
0.000247819 0.00106944 0
0.000877502 0.00477219 0
0.000298617 0.00234672 0
0.000247819 0.00106944 0
0 0 0
0.000298617 0.00234672 0
0 0 0
0.000877502 0.00477219 0
0.000298617 0.00234672 0
0.00118346 0.00548973 0
0.000531471 0.00323112 0
0.000298617 0.00234672 0
0 0 0
0.000531471 0.00323112 0
0 0 0
0.00118346 0.00548973 0
0.000531471 0.00323112 0
-0.000594258 0.0055424 0
-0.000228767 0.00352884 0
0.000531471 0.00323112 0
0 0 0
-0.000228767 0.00352884 0
0 0 0
-0.000594258 0.0055424 0
-0.000228767 0.00352884 0
-0.00193878 0.00523941 0
-0.00088383 0.00264123 0
-0.000228767 0.00352884 0
0 0 0
-0.00088383 0.00264123 0
0 0 0
-0.00193878 0.00523941 0
-0.00088383 0.00264123 0
-0.00300051 0.00470002 0
-0.001228 0.00113058 0
-0.00088383 0.00264123 0
0 0 0
-0.001228 0.00113058 0
0 0 0
-0.00300051 0.00470002 0
-0.001228 0.00113058 0
-0.00386078 0.00314513 0
-0.00144861 -0.000318361 0
-0.001228 0.00113058 0
0 0 0
-0.00144861 -0.000318361 0
0 0 0
-0.00386078 0.00314513 0
-0.00144861 -0.000318361 0
-0.00171317 0.00113429 0
-0.000818925 -0.000495207 0
-0.00144861 -0.000318361 0
0 0 0
-0.000818925 -0.000495207 0
0 0 0
-0.00171317 0.00113429 0
-0.000818925 -0.000495207 0
0 0 0
0 0 0
-0.000818925 -0.000495207 0
0 0 0
0 0 0
0 0 0
SCALARS pressure double 1
LOOKUP_TABLE default
-0.016721 -0.00913408 0.304033 0.288047 -0.00913408 -0.0082345 0.288047 0.246497 0.304033 0.288047 0.588642 0.560743 0.288047 0.246497 0.560743 0.478484 0.588642 0.560743 0.817335 0.777964 0.560743 0.478484 0.777964 0.664587 0.817335 0.777964 0.965082 0.918782 0.777964 0.664587 0.918782 0.785213 0.965082 0.918782 1.01625 0.967448 0.918782 0.785213 0.967448 0.826927 1.01625 0.967448 0.964984 0.918736 0.967448 0.826927 0.918736 0.785148 0.964984 0.918736 0.817572 0.778053 0.918736 0.785148 0.778053 0.66464 0.817572 0.778053 0.588901 0.560702 0.778053 0.66464 0.560702 0.47836 0.588901 0.560702 0.304265 0.288294 0.560702 0.47836 0.288294 0.246374 0.304265 0.288294 -0.0151055 -0.00931866 0.288294 0.246374 -0.00931866 -0.00831969 -0.0082345 -0.00433725 0.246497 0.180529 -0.00433725 -0.00158534 0.180529 0.0963912 0.246497 0.180529 0.478484 0.350635 0.180529 0.0963912 0.350635 0.187715 0.478484 0.350635 0.664587 0.487588 0.350635 0.187715 0.487588 0.262368 0.664587 0.487588 0.785213 0.576391 0.487588 0.262368 0.576391 0.311133 0.785213 0.576391 0.826927 0.607235 0.576391 0.311133 0.607235 0.328075 0.826927 0.607235 0.785148 0.576402 0.607235 0.328075 0.576402 0.311111 0.785148 0.576402 0.66464 0.4875 0.576402 0.311111 0.4875 0.262147 0.66464 0.4875 0.47836 0.350429 0.4875 0.262147 0.350429 0.187602 0.47836 0.350429 0.246374 0.180312 0.350429 0.187602 0.180312 0.096192 0.246374 0.180312 -0.00831969 -0.00474521 0.180312 0.096192 -0.00474521 -0.00165459 -0.00158534 -0.000226311 0.0963912 0.000713206 -0.000226311 -0.00193728 0.000713206 -0.0977047 0.0963912 0.000713206 0.187715 0.00458169 0.000713206 -0.0977047 0.00458169 -0.181611 0.187715 0.00458169 0.262368 0.00976998 0.00458169 -0.181611 0.00976998 -0.24596 0.262368 0.00976998 0.311133 0.0139607 0.00976998 -0.24596 0.0139607 -0.286387 0.311133 0.0139607 0.328075 0.015583 0.0139607 -0.286387 0.015583 -0.300215 0.328075 0.015583 0.311111 0.0139003 0.015583 -0.300215 0.0139003 -0.286415 0.311111 0.0139003 0.262147 0.00963445 0.0139003 -0.286415 0.00963445 -0.24612 0.262147 0.00963445 0.187602 0.00443296 0.00963445 -0.24612 0.00443296 -0.181746 0.187602 0.00443296 0.096192 0.000560184 0.00443296 -0.181746 0.000560184 -0.0978409 0.096192 0.000560184 -0.00165459 -0.000426447 0.000560184 -0.0978409 -0.000426447 -0.00210156 -0.00193728 -0.00542586 -0.0977047 -0.188711 -0.00542586 -0.00931572 -0.188711 -0.261649 -0.0977047 -0.188711 -0.181611 -0.351917 -0.188711 -0.261649 -0.351917 -0.488346 -0.181611 -0.351917 -0.24596 -0.47922 -0.351917 -0.488346 -0.47922 -0.666007 -0.24596 -0.47922 -0.286387 -0.56016 -0.47922 -0.666007 -0.56016 -0.779182 -0.286387 -0.56016 -0.300215 -0.587836 -0.56016 -0.779182 -0.587836 -0.817925 -0.300215 -0.587836 -0.286415 -0.560213 -0.587836 -0.817925 -0.560213 -0.779232 -0.286415 -0.560213 -0.24612 -0.479315 -0.560213 -0.779232 -0.479315 -0.666082 -0.24612 -0.479315 -0.181746 -0.351997 -0.479315 -0.666082 -0.351997 -0.48848 -0.181746 -0.351997 -0.0978409 -0.188702 -0.351997 -0.48848 -0.188702 -0.261671 -0.0978409 -0.188702 -0.00210156 -0.00535163 -0.188702 -0.261671 -0.00535163 -0.00905782 -0.00931572 -0.0108645 -0.261649 -0.30899 -0.0108645 -0.0159478 -0.30899 -0.324107 -0.261649 -0.30899 -0.488346 -0.575878 -0.30899 -0.324107 -0.575878 -0.606193 -0.488346 -0.575878 -0.666007 -0.786226 -0.575878 -0.606193 -0.786226 -0.827266 -0.666007 -0.786226 -0.779182 -0.920197 -0.786226 -0.827266 -0.920197 -0.968683 -0.779182 -0.920197 -0.817925 -0.966186 -0.920197 -0.968683 -0.966186 -1.01691 -0.817925 -0.966186 -0.779232 -0.920311 -0.966186 -1.01691 -0.920311 -0.968694 -0.779232 -0.920311 -0.666082 -0.786379 -0.920311 -0.968694 -0.786379 -0.827518 -0.666082 -0.786379 -0.48848 -0.576026 -0.786379 -0.827518 -0.576026 -0.606284 -0.48848 -0.576026 -0.261671 -0.308748 -0.576026 -0.606284 -0.308748 -0.324215 -0.261671 -0.308748 -0.00905782 -0.0107054 -0.308748 -0.324215 -0.0107054 -0.0143344 
SCALARS pressure_error double 1
LOOKUP_TABLE default