# vtk DataFile Version 3.0
#This file was generated by the deal.II library on 2026/6/8 at 18:02:38
ASCII
DATASET UNSTRUCTURED_GRID

POINTS 25600 double
0 0 0
0.0125 0 0
0 0.0125 0
0.0125 0.0125 0
0.0125 0 0
0.025 0 0
0.0125 0.0125 0
0.025 0.0125 0
0 0.0125 0
0.0125 0.0125 0
0 0.025 0
0.0125 0.025 0
0.0125 0.0125 0
0.025 0.0125 0
0.0125 0.025 0
0.025 0.025 0
0.025 0 0
0.0375 0 0
0.025 0.0125 0
0.0375 0.0125 0
0.0375 0 0
0.05 0 0
0.0375 0.0125 0
0.05 0.0125 0
0.025 0.0125 0
0.0375 0.0125 0
0.025 0.025 0
0.0375 0.025 0
0.0375 0.0125 0
0.05 0.0125 0
0.0375 0.025 0
0.05 0.025 0
0 0.025 0
0.0125 0.025 0
0 0.0375 0
0.0125 0.0375 0
0.0125 0.025 0
0.025 0.025 0
0.0125 0.0375 0
0.025 0.0375 0
0 0.0375 0
0.0125 0.0375 0
0 0.05 0
0.0125 0.05 0
0.0125 0.0375 0
0.025 0.0375 0
0.0125 0.05 0
0.025 0.05 0
0.025 0.025 0
0.0375 0.025 0
0.025 0.0375 0
0.0375 0.0375 0
0.0375 0.025 0
0.05 0.025 0
0.0375 0.0375 0
0.05 0.0375 0
0.025 0.0375 0
0.0375 0.0375 0
0.025 0.05 0
0.0375 0.05 0
0.0375 0.0375 0
0.05 0.0375 0
0.0375 0.05 0
0.05 0.05 0
0.05 0 0
0.0625 0 0
0.05 0.0125 0
0.0625 0.0125 0
0.0625 0 0
0.075 0 0
0.0625 0.0125 0
0.075 0.0125 0
0.05 0.0125 0
0.0625 0.0125 0
0.05 0.025 0
0.0625 0.025 0
0.0625 0.0125 0
0.075 0.0125 0
0.0625 0.025 0
0.075 0.025 0
0.075 0 0
0.0875 0 0
0.075 0.0125 0
0.0875 0.0125 0
0.0875 0 0
0.1 0 0
0.0875 0.0125 0
0.1 0.0125 0
0.075 0.0125 0
0.0875 0.0125 0
0.075 0.025 0
0.0875 0.025 0
0.0875 0.0125 0
0.1 0.0125 0
0.0875 0.025 0
0.1 0.025 0
0.05 0.025 0
0.0625 0.025 0
0.05 0.0375 0
0.0625 0.0375 0
0.0625 0.025 0
0.075 0.025 0
0.0625 0.0375 0
0.075 0.0375 0
0.05 0.0375 0
0.0625 0.0375 0
0.05 0.05 0
0.0625 0.05 0
0.0625 0.0375 0
0.075 0.0375 0
0.0625 0.05 0
0.075 0.05 0
0.075 0.025 0
0.0875 0.025 0
0.075 0.0375 0
0.0875 0.0375 0
0.0875 0.025 0
0.1 0.025 0
0.0875 0.0375 0
0.1 0.0375 0
0.075 0.0375 0
0.0875 0.0375 0
0.075 0.05 0
0.0875 0.05 0
0.0875 0.0375 0
0.1 0.0375 0
0.0875 0.05 0
0.1 0.05 0
0 0.05 0
0.0125 0.05 0
0 0.0625 0
0.0125 0.0625 0
0.0125 0.05 0
0.025 0.05 0
0.0125 0.0625 0
0.025 0.0625 0
0 0.0625 0
0.0125 0.0625 0
0 0.075 0
0.0125 0.075 0
0.0125 0.0625 0
0.025 0.0625 0
0.0125 0.075 0
0.025 0.075 0
0.025 0.05 0
0.0375 0.05 0
0.025 0.0625 0
0.0375 0.0625 0
0.0375 0.05 0
0.05 0.05 0
0.0375 0.0625 0
0.05 0.0625 0
0.025 0.0625 0
0.0375 0.0625 0
0.025 0.075 0
0.0375 0.075 0
0.0375 0.0625 0
0.05 0.0625 0
0.0375 0.075 0
0.05 0.075 0
0 0.075 0
0.0125 0.075 0
0 0.0875 0
0.0125 0.0875 0
0.0125 0.075 0
0.025 0.075 0
0.0125 0.0875 0
0.025 0.0875 0
0 0.0875 0
0.0125 0.0875 0
0 0.1 0
0.0125 0.1 0
0.0125 0.0875 0
0.025 0.0875 0
0.0125 0.1 0
0.025 0.1 0
0.025 0.075 0
0.0375 0.075 0
0.025 0.0875 0
0.0375 0.0875 0
0.0375 0.075 0
0.05 0.075 0
0.0375 0.0875 0
0.05 0.0875 0
0.025 0.0875 0
0.0375 0.0875 0
0.025 0.1 0
0.0375 0.1 0
0.0375 0.0875 0
0.05 0.0875 0
0.0375 0.1 0
0.05 0.1 0
0.05 0.05 0
0.0625 0.05 0
0.05 0.0625 0
0.0625 0.0625 0
0.0625 0.05 0
0.075 0.05 0
0.0625 0.0625 0
0.075 0.0625 0
0.05 0.0625 0
0.0625 0.0625 0
0.05 0.075 0
0.0625 0.075 0
0.0625 0.0625 0
0.075 0.0625 0
0.0625 0.075 0
0.075 0.075 0
0.075 0.05 0
0.0875 0.05 0
0.075 0.0625 0
0.0875 0.0625 0
0.0875 0.05 0
0.1 0.05 0
0.0875 0.0625 0
0.1 0.0625 0
0.075 0.0625 0
0.0875 0.0625 0
0.075 0.075 0
0.0875 0.075 0
0.0875 0.0625 0
0.1 0.0625 0
0.0875 0.075 0
0.1 0.075 0
0.05 0.075 0
0.0625 0.075 0
0.05 0.0875 0
0.0625 0.0875 0
0.0625 0.075 0
0.075 0.075 0
0.0625 0.0875 0
0.075 0.0875 0
0.05 0.0875 0
0.0625 0.0875 0
0.05 0.1 0
0.0625 0.1 0
0.0625 0.0875 0
0.075 0.0875 0
0.0625 0.1 0
0.075 0.1 0
0.075 0.075 0
0.0875 0.075 0
0.075 0.0875 0
0.0875 0.0875 0
0.0875 0.075 0
0.1 0.075 0
0.0875 0.0875 0
0.1 0.0875 0
0.075 0.0875 0
0.0875 0.0875 0
0.075 0.1 0
0.0875 0.1 0
0.0875 0.0875 0
0.1 0.0875 0
0.0875 0.1 0
0.1 0.1 0
0.1 0 0
0.1125 0 0
0.1 0.0125 0
0.1125 0.0125 0
0.1125 0 0
0.125 0 0
0.1125 0.0125 0
0.125 0.0125 0
0.1 0.0125 0
0.1125 0.0125 0
0.1 0.025 0
0.1125 0.025 0
0.1125 0.0125 0
0.125 0.0125 0
0.1125 0.025 0
0.125 0.025 0
0.125 0 0
0.1375 0 0
0.125 0.0125 0
0.1375 0.0125 0
0.1375 0 0
0.15 0 0
0.1375 0.0125 0
0.15 0.0125 0
0.125 0.0125 0
0.1375 0.0125 0
0.125 0.025 0
0.1375 0.025 0
0.1375 0.0125 0
0.15 0.0125 0
0.1375 0.025 0
0.15 0.025 0
0.1 0.025 0
0.1125 0.025 0
0.1 0.0375 0
0.1125 0.0375 0
0.1125 0.025 0
0.125 0.025 0
0.1125 0.0375 0
0.125 0.0375 0
0.1 0.0375 0
0.1125 0.0375 0
0.1 0.05 0
0.1125 0.05 0
0.1125 0.0375 0
0.125 0.0375 0
0.1125 0.05 0
0.125 0.05 0
0.125 0.025 0
0.1375 0.025 0
0.125 0.0375 0
0.1375 0.0375 0
0.1375 0.025 0
0.15 0.025 0
0.1375 0.0375 0
0.15 0.0375 0
0.125 0.0375 0
0.1375 0.0375 0
0.125 0.05 0
0.1375 0.05 0
0.1375 0.0375 0
0.15 0.0375 0
0.1375 0.05 0
0.15 0.05 0
0.15 0 0
0.1625 0 0
0.15 0.0125 0
0.1625 0.0125 0
0.1625 0 0
0.175 0 0
0.1625 0.0125 0
0.175 0.0125 0
0.15 0.0125 0
0.1625 0.0125 0
0.15 0.025 0
0.1625 0.025 0
0.1625 0.0125 0
0.175 0.0125 0
0.1625 0.025 0
0.175 0.025 0
0.175 0 0
0.1875 0 0
0.175 0.0125 0
0.1875 0.0125 0
0.1875 0 0
0.2 0 0
0.1875 0.0125 0
0.2 0.0125 0
0.175 0.0125 0
0.1875 0.0125 0
0.175 0.025 0
0.1875 0.025 0
0.1875 0.0125 0
0.2 0.0125 0
0.1875 0.025 0
0.2 0.025 0
0.15 0.025 0
0.1625 0.025 0
0.15 0.0375 0
0.1625 0.0375 0
0.1625 0.025 0
0.175 0.025 0
0.1625 0.0375 0
0.175 0.0375 0
0.15 0.0375 0
0.1625 0.0375 0
0.15 0.05 0
0.1625 0.05 0
0.1625 0.0375 0
0.175 0.0375 0
0.1625 0.05 0
0.175 0.05 0
0.175 0.025 0
0.1875 0.025 0
0.175 0.0375 0
0.1875 0.0375 0
0.1875 0.025 0
0.2 0.025 0
0.1875 0.0375 0
0.2 0.0375 0
0.175 0.0375 0
0.1875 0.0375 0
0.175 0.05 0
0.1875 0.05 0
0.1875 0.0375 0
0.2 0.0375 0
0.1875 0.05 0
0.2 0.05 0
0.1 0.05 0
0.1125 0.05 0
0.1 0.0625 0
0.1125 0.0625 0
0.1125 0.05 0
0.125 0.05 0
0.1125 0.0625 0
0.125 0.0625 0
0.1 0.0625 0
0.1125 0.0625 0
0.1 0.075 0
0.1125 0.075 0
0.1125 0.0625 0
0.125 0.0625 0
0.1125 0.075 0
0.125 0.075 0
0.125 0.05 0
0.1375 0.05 0
0.125 0.0625 0
0.1375 0.0625 0
0.1375 0.05 0
0.15 0.05 0
0.1375 0.0625 0
0.15 0.0625 0
0.125 0.0625 0
0.1375 0.0625 0
0.125 0.075 0
0.1375 0.075 0
0.1375 0.0625 0
0.15 0.0625 0
0.1375 0.075 0
0.15 0.075 0
0.1 0.075 0
0.1125 0.075 0
0.1 0.0875 0
0.1125 0.0875 0
0.1125 0.075 0
0.125 0.075 0
0.1125 0.0875 0
0.125 0.0875 0
0.1 0.0875 0
0.1125 0.0875 0
0.1 0.1 0
0.1125 0.1 0
0.1125 0.0875 0
0.125 0.0875 0
0.1125 0.1 0
0.125 0.1 0
0.125 0.075 0
0.1375 0.075 0
0.125 0.0875 0
0.1375 0.0875 0
0.1375 0.075 0
0.15 0.075 0
0.1375 0.0875 0
0.15 0.0875 0
0.125 0.0875 0
0.1375 0.0875 0
0.125 0.1 0
0.1375 0.1 0
0.1375 0.0875 0
0.15 0.0875 0
0.1375 0.1 0
0.15 0.1 0
0.15 0.05 0
0.1625 0.05 0
0.15 0.0625 0
0.1625 0.0625 0
0.1625 0.05 0
0.175 0.05 0
0.1625 0.0625 0
0.175 0.0625 0
0.15 0.0625 0
0.1625 0.0625 0
0.15 0.075 0
0.1625 0.075 0
0.1625 0.0625 0
0.175 0.0625 0
0.1625 0.075 0
0.175 0.075 0
0.175 0.05 0
0.1875 0.05 0
0.175 0.0625 0
0.1875 0.0625 0
0.1875 0.05 0
0.2 0.05 0
0.1875 0.0625 0
0.2 0.0625 0
0.175 0.0625 0
0.1875 0.0625 0
0.175 0.075 0
0.1875 0.075 0
0.1875 0.0625 0
0.2 0.0625 0
0.1875 0.075 0
0.2 0.075 0
0.15 0.075 0
0.1625 0.075 0
0.15 0.0875 0
0.1625 0.0875 0
0.1625 0.075 0
0.175 0.075 0
0.1625 0.0875 0
0.175 0.0875 0
0.15 0.0875 0
0.1625 0.0875 0
0.15 0.1 0
0.1625 0.1 0
0.1625 0.0875 0
0.175 0.0875 0
0.1625 0.1 0
0.175 0.1 0
0.175 0.075 0
0.1875 0.075 0
0.175 0.0875 0
0.1875 0.0875 0
0.1875 0.075 0
0.2 0.075 0
0.1875 0.0875 0
0.2 0.0875 0
0.175 0.0875 0
0.1875 0.0875 0
0.175 0.1 0
0.1875 0.1 0
0.1875 0.0875 0
0.2 0.0875 0
0.1875 0.1 0
0.2 0.1 0
0 0.1 0
0.0125 0.1 0
0 0.1125 0
0.0125 0.1125 0
0.0125 0.1 0
0.025 0.1 0
0.0125 0.1125 0
0.025 0.1125 0
0 0.1125 0
0.0125 0.1125 0
0 0.125 0
0.0125 0.125 0
0.0125 0.1125 0
0.025 0.1125 0
0.0125 0.125 0
0.025 0.125 0
0.025 0.1 0
0.0375 0.1 0
0.025 0.1125 0
0.0375 0.1125 0
0.0375 0.1 0
0.05 0.1 0
0.0375 0.1125 0
0.05 0.1125 0
0.025 0.1125 0
0.0375 0.1125 0
0.025 0.125 0
0.0375 0.125 0
0.0375 0.1125 0
0.05 0.1125 0
0.0375 0.125 0
0.05 0.125 0
0 0.125 0
0.0125 0.125 0
0 0.1375 0
0.0125 0.1375 0
0.0125 0.125 0
0.025 0.125 0
0.0125 0.1375 0
0.025 0.1375 0
0 0.1375 0
0.0125 0.1375 0
0 0.15 0
0.0125 0.15 0
0.0125 0.1375 0
0.025 0.1375 0
0.0125 0.15 0
0.025 0.15 0
0.025 0.125 0
0.0375 0.125 0
0.025 0.1375 0
0.0375 0.1375 0
0.0375 0.125 0
0.05 0.125 0
0.0375 0.1375 0
0.05 0.1375 0
0.025 0.1375 0
0.0375 0.1375 0
0.025 0.15 0
0.0375 0.15 0
0.0375 0.1375 0
0.05 0.1375 0
0.0375 0.15 0
0.05 0.15 0
0.05 0.1 0
0.0625 0.1 0
0.05 0.1125 0
0.0625 0.1125 0
0.0625 0.1 0
0.075 0.1 0
0.0625 0.1125 0
0.075 0.1125 0
0.05 0.1125 0
0.0625 0.1125 0
0.05 0.125 0
0.0625 0.125 0
0.0625 0.1125 0
0.075 0.1125 0
0.0625 0.125 0
0.075 0.125 0
0.075 0.1 0
0.0875 0.1 0
0.075 0.1125 0
0.0875 0.1125 0
0.0875 0.1 0
0.1 0.1 0
0.0875 0.1125 0
0.1 0.1125 0
0.075 0.1125 0
0.0875 0.1125 0
0.075 0.125 0
0.0875 0.125 0
0.0875 0.1125 0
0.1 0.1125 0
0.0875 0.125 0
0.1 0.125 0
0.05 0.125 0
0.0625 0.125 0
0.05 0.1375 0
0.0625 0.1375 0
0.0625 0.125 0
0.075 0.125 0
0.0625 0.1375 0
0.075 0.1375 0
0.05 0.1375 0
0.0625 0.1375 0
0.05 0.15 0
0.0625 0.15 0
0.0625 0.1375 0
0.075 0.1375 0
0.0625 0.15 0
0.075 0.15 0
0.075 0.125 0
0.0875 0.125 0
0.075 0.1375 0
0.0875 0.1375 0
0.0875 0.125 0
0.1 0.125 0
0.0875 0.1375 0
0.1 0.1375 0
0.075 0.1375 0
0.0875 0.1375 0
0.075 0.15 0
0.0875 0.15 0
0.0875 0.1375 0
0.1 0.1375 0
0.0875 0.15 0
0.1 0.15 0
0 0.15 0
0.0125 0.15 0
0 0.1625 0
0.0125 0.1625 0
0.0125 0.15 0
0.025 0.15 0
0.0125 0.1625 0
0.025 0.1625 0
0 0.1625 0
0.0125 0.1625 0
0 0.175 0
0.0125 0.175 0
0.0125 0.1625 0
0.025 0.1625 0
0.0125 0.175 0
0.025 0.175 0
0.025 0.15 0
0.0375 0.15 0
0.025 0.1625 0
0.0375 0.1625 0
0.0375 0.15 0
0.05 0.15 0
0.0375 0.1625 0
0.05 0.1625 0
0.025 0.1625 0
0.0375 0.1625 0
0.025 0.175 0
0.0375 0.175 0
0.0375 0.1625 0
0.05 0.1625 0
0.0375 0.175 0
0.05 0.175 0
0 0.175 0
0.0125 0.175 0
0 0.1875 0
0.0125 0.1875 0
0.0125 0.175 0
0.025 0.175 0
0.0125 0.1875 0
0.025 0.1875 0
0 0.1875 0
0.0125 0.1875 0
0 0.2 0
0.0125 0.2 0
0.0125 0.1875 0
0.025 0.1875 0
0.0125 0.2 0
0.025 0.2 0
0.025 0.175 0
0.0375 0.175 0
0.025 0.1875 0
0.0375 0.1875 0
0.0375 0.175 0
0.05 0.175 0
0.0375 0.1875 0
0.05 0.1875 0
0.025 0.1875 0
0.0375 0.1875 0
0.025 0.2 0
[...]
POINT_DATA 25600
VECTORS velocity double
0 0 0
0.0392598 0 0
0 -0.0392598 0
0.0392286 -0.0392299 0
0.0392598 0 0
0.0784591 0 0
0.0392286 -0.0392299 0
0.0783966 -0.039139 0
0 -0.0392598 0
0.0392286 -0.0392299 0
0 -0.0784591 0
0.0391379 -0.0783987 0
0.0392286 -0.0392299 0
0.0783966 -0.039139 0
0.0391379 -0.0783987 0
0.0782152 -0.0782171 0
0.0784591 0 0
0.117537 0 0
0.0783966 -0.039139 0
0.117444 -0.0389879 0
0.117537 0 0
0.156434 0 0
0.117444 -0.0389879 0
0.156309 -0.0387767 0
0.0783966 -0.039139 0
0.117444 -0.0389879 0
0.0782152 -0.0782171 0
0.117172 -0.0779151 0
0.117444 -0.0389879 0
0.156309 -0.0387767 0
0.117172 -0.0779151 0
0.155948 -0.0774932 0
0 -0.0784591 0
0.0391379 -0.0783987 0
0 -0.117537 0
0.0389867 -0.117447 0
0.0391379 -0.0783987 0
0.0782152 -0.0782171 0
0.0389867 -0.117447 0
0.0779131 -0.117174 0
0 -0.117537 0
0.0389867 -0.117447 0
0 -0.156434 0
0.0387755 -0.156313 0
0.0389867 -0.117447 0
0.0779131 -0.117174 0
0.0387755 -0.156313 0
0.0774912 -0.155951 0
0.0782152 -0.0782171 0
0.117172 -0.0779151 0
0.0779131 -0.117174 0
0.11672 -0.116722 0
0.117172 -0.0779151 0
0.155948 -0.0774932 0
0.11672 -0.116722 0
0.155346 -0.116091 0
0.0779131 -0.117174 0
0.11672 -0.116722 0
0.0774912 -0.155951 0
0.116088 -0.15535 0
0.11672 -0.116722 0
0.155346 -0.116091 0
0.116088 -0.15535 0
0.154506 -0.154509 0
0.156434 0 0
0.19509 0 0
0.156309 -0.0387767 0
0.194934 -0.0385058 0
0.19509 0 0
0.233445 0 0
0.194934 -0.0385058 0
0.233259 -0.0381756 0
0.156309 -0.0387767 0
0.194934 -0.0385058 0
0.155948 -0.0774932 0
0.194484 -0.076952 0
0.194934 -0.0385058 0
0.233259 -0.0381756 0
0.194484 -0.076952 0
0.232721 -0.0762922 0
0.233445 0 0
0.27144 0 0
0.233259 -0.0381756 0
0.271225 -0.0377865 0
0.27144 0 0
0.309017 0 0
0.271225 -0.0377865 0
0.308772 -0.0373391 0
0.233259 -0.0381756 0
0.271225 -0.0377865 0
0.232721 -0.0762922 0
0.270599 -0.0755147 0
0.271225 -0.0377865 0
0.308772 -0.0373391 0
0.270599 -0.0755147 0
0.30806 -0.0746207 0
0.155948 -0.0774932 0
0.194484 -0.076952 0
0.155346 -0.116091 0
0.193734 -0.11528 0
0.194484 -0.076952 0
0.232721 -0.0762922 0
0.193734 -0.11528 0
0.231824 -0.114292 0
0.155346 -0.116091 0
0.193734 -0.11528 0
0.154506 -0.154509 0
0.192686 -0.153431 0
0.193734 -0.11528 0
0.231824 -0.114292 0
0.192686 -0.153431 0
0.230569 -0.152115 0
0.232721 -0.0762922 0
0.270599 -0.0755147 0
0.231824 -0.114292 0
0.269556 -0.113127 0
0.270599 -0.0755147 0
0.30806 -0.0746207 0
0.269556 -0.113127 0
0.306872 -0.111787 0
0.231824 -0.114292 0
0.269556 -0.113127 0
0.230569 -0.152115 0
0.268097 -0.150564 0
0.269556 -0.113127 0
0.306872 -0.111787 0
0.268097 -0.150564 0
0.305211 -0.148782 0
0 -0.156434 0
0.0387755 -0.156313 0
0 -0.19509 0
0.0385046 -0.194939 0
0.0387755 -0.156313 0
0.0774912 -0.155951 0
0.0385046 -0.194939 0
0.07695 -0.194488 0
0 -0.19509 0
0.0385046 -0.194939 0
0 -0.233445 0
0.0381744 -0.233264 0
0.0385046 -0.194939 0
0.07695 -0.194488 0
0.0381744 -0.233264 0
0.0762902 -0.232725 0
0.0774912 -0.155951 0
0.116088 -0.15535 0
0.07695 -0.194488 0
0.115277 -0.193738 0
0.116088 -0.15535 0
0.154506 -0.154509 0
0.115277 -0.193738 0
0.153427 -0.19269 0
0.07695 -0.194488 0
0.115277 -0.193738 0
0.0762902 -0.232725 0
0.114289 -0.231828 0
0.115277 -0.193738 0
0.153427 -0.19269 0
0.114289 -0.231828 0
0.152112 -0.230574 0
0 -0.233445 0
0.0381744 -0.233264 0
0 -0.27144 0
0.0377854 -0.27123 0
0.0381744 -0.233264 0
0.0762902 -0.232725 0
0.0377854 -0.27123 0
0.0755128 -0.270604 0
0 -0.27144 0
0.0377854 -0.27123 0
0 -0.309017 0
0.037338 -0.308778 0
0.0377854 -0.27123 0
0.0755128 -0.270604 0
0.037338 -0.308778 0
0.0746189 -0.308065 0
0.0762902 -0.232725 0
0.114289 -0.231828 0
0.0755128 -0.270604 0
0.113124 -0.269561 0
0.114289 -0.231828 0
0.152112 -0.230574 0
0.113124 -0.269561 0
0.150561 -0.268102 0
0.0755128 -0.270604 0
0.113124 -0.269561 0
0.0746189 -0.308065 0
0.111785 -0.306878 0
0.113124 -0.269561 0
0.150561 -0.268102 0
0.111785 -0.306878 0
0.148779 -0.305217 0
0.154506 -0.154509 0
0.192686 -0.153431 0
0.153427 -0.19269 0
0.191341 -0.191345 0
0.192686 -0.153431 0
0.230569 -0.152115 0
0.191341 -0.191345 0
0.228959 -0.189704 0
0.153427 -0.19269 0
0.191341 -0.191345 0
0.152112 -0.230574 0
0.1897 -0.228964 0
0.191341 -0.191345 0
0.228959 -0.189704 0
0.1897 -0.228964 0
0.226995 -0.227 0
0.230569 -0.152115 0
0.268097 -0.150564 0
0.228959 -0.189704 0
0.266224 -0.18777 0
0.268097 -0.150564 0
0.305211 -0.148782 0
0.266224 -0.18777 0
0.303079 -0.185546 0
0.228959 -0.189704 0
0.266224 -0.18777 0
0.226995 -0.227 0
0.26394 -0.224685 0
0.266224 -0.18777 0
0.303079 -0.185546 0
0.26394 -0.224685 0
0.300479 -0.222024 0
0.152112 -0.230574 0
0.1897 -0.228964 0
0.150561 -0.268102 0
0.187766 -0.266229 0
0.1897 -0.228964 0
0.226995 -0.227 0
0.187766 -0.266229 0
0.224681 -0.263945 0
0.150561 -0.268102 0
0.187766 -0.266229 0
0.148779 -0.305217 0
0.185543 -0.303084 0
0.187766 -0.266229 0
0.224681 -0.263945 0
0.185543 -0.303084 0
0.22202 -0.300484 0
0.226995 -0.227 0
0.26394 -0.224685 0
0.224681 -0.263945 0
0.261249 -0.261254 0
0.26394 -0.224685 0
0.300479 -0.222024 0
0.261249 -0.261254 0
0.297415 -0.25816 0
0.224681 -0.263945 0
0.261249 -0.261254 0
0.22202 -0.300484 0
0.258156 -0.29742 0
0.261249 -0.261254 0
0.297415 -0.25816 0
0.258156 -0.29742 0
0.293893 -0.293898 0
0.309017 0 0
0.346117 0 0
0.308772 -0.0373391 0
0.345844 -0.0368341 0
0.346117 0 0
0.382683 0 0
0.345844 -0.0368341 0
0.382382 -0.0362722 0
0.308772 -0.0373391 0
0.345844 -0.0368341 0
0.30806 -0.0746207 0
0.345045 -0.0736114 0
0.345844 -0.0368341 0
0.382382 -0.0362722 0
0.345045 -0.0736114 0
0.381499 -0.0724886 0
0.382683 0 0
0.41866 0 0
0.382382 -0.0362722 0
0.418331 -0.0356544 0
0.41866 0 0
0.45399 0 0
0.418331 -0.0356544 0
0.453635 -0.0349816 0
0.382382 -0.0362722 0
0.418331 -0.0356544 0
0.381499 -0.0724886 0
0.417365 -0.071254 0
0.418331 -0.0356544 0
0.453635 -0.0349816 0
0.417365 -0.071254 0
0.452587 -0.0699094 0
0.30806 -0.0746207 0
0.345045 -0.0736114 0
0.306872 -0.111787 0
0.343715 -0.110275 0
0.345045 -0.0736114 0
0.381499 -0.0724886 0
0.343715 -0.110275 0
0.380028 -0.108593 0
0.306872 -0.111787 0
0.343715 -0.110275 0
0.305211 -0.148782 0
0.341855 -0.146769 0
0.343715 -0.110275 0
0.380028 -0.108593 0
0.341855 -0.146769 0
0.377971 -0.14453 0
0.381499 -0.0724886 0
0.417365 -0.071254 0
0.380028 -0.108593 0
0.415756 -0.106744 0
0.417365 -0.071254 0
0.452587 -0.0699094 0
0.415756 -0.106744 0
0.450842 -0.104729 0
0.380028 -0.108593 0
0.415756 -0.106744 0
0.377971 -0.14453 0
0.413504 -0.142068 0
0.415756 -0.106744 0
0.450842 -0.104729 0
0.413504 -0.142068 0
0.4484 -0.139387 0
0.45399 0 0
0.488621 0 0
0.453635 -0.0349816 0
0.488239 -0.0342549 0
0.488621 0 0
0.522499 0 0
0.488239 -0.0342549 0
0.522091 -0.0334753 0
0.453635 -0.0349816 0
0.488239 -0.0342549 0
0.452587 -0.0699094 0
0.487112 -0.0684571 0
0.488239 -0.0342549 0
0.522091 -0.0334753 0
0.487112 -0.0684571 0
0.520885 -0.0668991 0
0.522499 0 0
0.55557 0 0
0.522091 -0.0334753 0
0.555137 -0.0326442 0
0.55557 0 0
0.587785 0 0
0.555137 -0.0326442 0
0.587328 -0.0317626 0
0.522091 -0.0334753 0
0.555137 -0.0326442 0
0.520885 -0.0668991 0
0.553855 -0.065238 0
0.555137 -0.0326442 0
0.587328 -0.0317626 0
0.553855 -0.065238 0
0.585971 -0.0634763 0
0.452587 -0.0699094 0
0.487112 -0.0684571 0
0.450842 -0.104729 0
0.485232 -0.102553 0
0.487112 -0.0684571 0
0.520885 -0.0668991 0
0.485232 -0.102553 0
0.518875 -0.10022 0
0.450842 -0.104729 0
0.485232 -0.102553 0
0.4484 -0.139387 0
0.482604 -0.136492 0
0.485232 -0.102553 0
0.518875 -0.10022 0
0.482604 -0.136492 0
0.516064 -0.133385 0
0.520885 -0.0668991 0
0.553855 -0.065238 0
0.518875 -0.10022 0
0.551718 -0.0977311 0
0.553855 -0.065238 0
0.585971 -0.0634763 0
0.551718 -0.0977311 0
0.583709 -0.095092 0
0.518875 -0.10022 0
0.551718 -0.0977311 0
0.516064 -0.133385 0
0.548729 -0.130073 0
0.551718 -0.0977311 0
0.583709 -0.095092 0
0.548729 -0.130073 0
0.580547 -0.126561 0
0.305211 -0.148782 0
0.341855 -0.146769 0
0.303079 -0.185546 0
0.339466 -0.183036 0
0.341855 -0.146769 0
0.377971 -0.14453 0
0.339466 -0.183036 0
0.37533 -0.180244 0
0.303079 -0.185546 0
0.339466 -0.183036 0
0.300479 -0.222024 0
0.336553 -0.219021 0
0.339466 -0.183036 0
0.37533 -0.180244 0
0.336553 -0.219021 0
0.372109 -0.21568 0
0.377971 -0.14453 0
0.413504 -0.142068 0
0.37533 -0.180244 0
0.410614 -0.177174 0
0.413504 -0.142068 0
0.4484 -0.139387 0
0.410614 -0.177174 0
0.445266 -0.17383 0
0.37533 -0.180244 0
0.410614 -0.177174 0
0.372109 -0.21568 0
0.407091 -0.212006 0
0.410614 -0.177174 0
0.445266 -0.17383 0
0.407091 -0.212006 0
0.441446 -0.208005 0
0.300479 -0.222024 0
0.336553 -0.219021 0
0.297415 -0.25816 0
0.333122 -0.254668 0
0.336553 -0.219021 0
0.372109 -0.21568 0
0.333122 -0.254668 0
0.368315 -0.250783 0
0.297415 -0.25816 0
0.333122 -0.254668 0
0.293893 -0.293898 0
0.329177 -0.289922 0
0.333122 -0.254668 0
0.368315 -0.250783 0
0.329177 -0.289922 0
0.363954 -0.285499 0
0.372109 -0.21568 0
0.407091 -0.212006 0
0.368315 -0.250783 0
0.402941 -0.246511 0
0.407091 -0.212006 0
0.441446 -0.208005 0
0.402941 -0.246511 0
0.436945 -0.24186 0
0.368315 -0.250783 0
0.402941 -0.246511 0
0.363954 -0.285499 0
0.398169 -0.280637 0
0.402941 -0.246511 0
0.436945 -0.24186 0
0.398169 -0.280637 0
0.431771 -0.275341 0
0.4484 -0.139387 0
0.482604 -0.136492 0
0.445266 -0.17383 0
0.479232 -0.170219 0
0.482604 -0.136492 0
0.516064 -0.133385 0
0.479232 -0.170219 0
0.512458 -0.166345 0
0.445266 -0.17383 0
0.479232 -0.170219 0
0.441446 -0.208005 0
0.47512 -0.203684 0
0.479232 -0.170219 0
0.512458 -0.166345 0
0.47512 -0.203684 0
0.508061 -0.199049 0
0.516064 -0.133385 0
0.548729 -0.130073 0
0.512458 -0.166345 0
0.544894 -0.162215 0
0.548729 -0.130073 0
0.580547 -0.126561 0
0.544894 -0.162215 0
0.57649 -0.157835 0
0.512458 -0.166345 0
0.544894 -0.162215 0
0.508061 -0.199049 0
0.540219 -0.194106 0
0.544894 -0.162215 0
0.57649 -0.157835 0
0.540219 -0.194106 0
0.571544 -0.188865 0
0.441446 -0.208005 0
0.47512 -0.203684 0
0.436945 -0.24186 0
0.470276 -0.236835 0
0.47512 -0.203684 0
0.508061 -0.199049 0
0.470276 -0.236835 0
0.502881 -0.231445 0
0.436945 -0.24186 0
0.470276 -0.236835 0
0.431771 -0.275341 0
0.464706 -0.269621 0
0.470276 -0.236835 0
0.502881 -0.231445 0
0.464706 -0.269621 0
0.496926 -0.263485 0
0.508061 -0.199049 0
0.540219 -0.194106 0
0.502881 -0.231445 0
0.534711 -0.225699 0
0.540219 -0.194106 0
0.571544 -0.188865 0
0.534711 -0.225699 0
0.565717 -0.219604 0
0.502881 -0.231445 0
0.534711 -0.225699 0
0.496926 -0.263485 0
0.528379 -0.256943 0
0.534711 -0.225699 0
0.565717 -0.219604 0
0.528379 -0.256943 0
0.559017 -0.250004 0
0 -0.309017 0
0.037338 -0.308778 0
0 -0.346117 0
0.0368331 -0.345849 0
0.037338 -0.308778 0
0.0746189 -0.308065 0
0.0368331 -0.345849 0
0.0736098 -0.345052 0
0 -0.346117 0
0.0368331 -0.345849 0
0 -0.382683 0
0.0362713 -0.382388 0
0.0368331 -0.345849 0
0.0736098 -0.345052 0
0.0362713 -0.382388 0
0.0724871 -0.381506 0
0.0746189 -0.308065 0
0.111785 -0.306878 0
0.0736098 -0.345052 0
0.110273 -0.343722 0
0.111785 -0.306878 0
0.148779 -0.305217 0
0.110273 -0.343722 0
0.146766 -0.341861 0
0.0736098 -0.345052 0
0.110273 -0.343722 0
0.0724871 -0.381506 0
0.108591 -0.380035 0
0.110273 -0.343722 0
0.146766 -0.341861 0
0.108591 -0.380035 0
0.144527 -0.377977 0
0 -0.382683 0
0.0362713 -0.382388 0
0 -0.41866 0
0.0356536 -0.418337 0
0.0362713 -0.382388 0
0.0724871 -0.381506 0
0.0356536 -0.418337 0
0.0712526 -0.417372 0
0 -0.41866 0
0.0356536 -0.418337 0
0 -0.45399 0
0.0349809 -0.453641 0
0.0356536 -0.418337 0
0.0712526 -0.417372 0
0.0349809 -0.453641 0
0.0699081 -0.452595 0
0.0724871 -0.381506 0
0.108591 -0.380035 0
0.0712526 -0.417372 0
0.106742 -0.415763 0
0.108591 -0.380035 0
0.144527 -0.377977 0
0.106742 -0.415763 0
0.142066 -0.413511 0
0.0712526 -0.417372 0
0.106742 -0.415763 0
0.0699081 -0.452595 0
0.104727 -0.450849 0
0.106742 -0.415763 0
0.142066 -0.413511 0
0.104727 -0.450849 0
0.139385 -0.448407 0
0.148779 -0.305217 0
0.185543 -0.303084 0
0.146766 -0.341861 0
0.183033 -0.339472 0
0.185543 -0.303084 0
0.22202 -0.300484 0
0.183033 -0.339472 0
0.219017 -0.336559 0
0.146766 -0.341861 0
0.183033 -0.339472 0
0.144527 -0.377977 0
0.180241 -0.375336 0
0.183033 -0.339472 0
0.219017 -0.336559 0
0.180241 -0.375336 0
0.215676 -0.372115 0
0.22202 -0.300484 0
0.258156 -0.29742 0
0.219017 -0.336559 0
0.254664 -0.333127 0
0.258156 -0.29742 0
0.293893 -0.293898 0
0.254664 -0.333127 0
0.289917 -0.329182 0
0.219017 -0.336559 0
0.254664 -0.333127 0
0.215676 -0.372115 0
0.250779 -0.368321 0
0.254664 -0.333127 0
0.289917 -0.329182 0
0.250779 -0.368321 0
0.285495 -0.363959 0
0.144527 -0.377977 0
0.180241 -0.375336 0
0.142066 -0.413511 0
0.177171 -0.410621 0
0.180241 -0.375336 0
0.215676 -0.372115 0
0.177171 -0.410621 0
0.212003 -0.407098 0
0.142066 -0.413511 0
0.177171 -0.410621 0
0.139385 -0.448407 0
0.173828 -0.445273 0
0.177171 -0.410621 0
0.212003 -0.407098 0
0.173828 -0.445273 0
0.208002 -0.441452 0
0.215676 -0.372115 0
0.250779 -0.368321 0
0.212003 -0.407098 0
0.246507 -0.402947 0
0.250779 -0.368321 0
0.285495 -0.363959 0
0.246507 -0.402947 0
0.280632 -0.398175 0
0.212003 -0.407098 0
0.246507 -0.402947 0
0.208002 -0.441452 0
0.241856 -0.436951 0
0.246507 -0.402947 0
0.280632 -0.398175 0
0.241856 -0.436951 0
0.275337 -0.431776 0
0 -0.45399 0
0.0349809 -0.453641 0
0 -0.488621 0
0.0342542 -0.488246 0
0.0349809 -0.453641 0
0.0699081 -0.452595 0
0.0342542 -0.488246 0
0.0684558 -0.487119 0
0 -0.488621 0
0.0342542 -0.488246 0
0 -0.522499 0
0.0334747 -0.522098 0
0.0342542 -0.488246 0
0.0684558 -0.487119 0
0.0334747 -0.522098 0
0.066898 -0.520893 0
0.0699081 -0.452595 0
0.104727 -0.450849 0
0.0684558 -0.487119 0
0.102552 -0.48524 0
0.104727 -0.450849 0
0.139385 -0.448407 0
0.102552 -0.48524 0
0.136489 -0.482611 0
0.0684558 -0.487119 0
0.102552 -0.48524 0
0.066898 -0.520893 0
0.100218 -0.518883 0
0.102552 -0.48524 0
0.136489 -0.482611 0
0.100218 -0.518883 0
0.133383 -0.516071 0
0 -0.522499 0
0.0334747 -0.522098 0
0 -0.55557 0
0.0326436 -0.555145 0
0.0334747 -0.522098 0
0.066898 -0.520893 0
0.0326436 -0.555145 0
0.065237 -0.553863 0
0 -0.55557 0
0.0326436 -0.555145 0
0 -0.587785 0
0.0317621 -0.587335 0
0.0326436 -0.555145 0
0.065237 -0.553863 0
0.0317621 -0.587335 0
0.0634754 -0.585979 0
0.066898 -0.520893 0
0.100218 -0.518883 0
0.065237 -0.553863 0
0.0977296 -0.551725 0
0.100218 -0.518883 0
0.133383 -0.516071 0
0.0977296 -0.551725 0
0.130071 -0.548736 0
0.065237 -0.553863 0
0.0977296 -0.551725 0
0.0634754 -0.585979 0
0.0950906 -0.583717 0
0.0977296 -0.551725 0
0.130071 -0.548736 0
0.0950906 -0.583717 0
0.126559 -0.580555 0
0.139385 -0.448407 0
0.173828 -0.445273 0
0.136489 -0.482611 0
0.170216 -0.479238 0
0.173828 -0.445273 0
0.208002 -0.441452 0
0.170216 -0.479238 0
0.203681 -0.475126 0
0.136489 -0.482611 0
0.170216 -0.479238 0
0.133383 -0.516071 0
0.166343 -0.512465 0
0.170216 -0.479238 0
0.203681 -0.475126 0
0.166343 -0.512465 0
0.199046 -0.508068 0
0.208002 -0.441452 0
0.241856 -0.436951 0
0.203681 -0.475126 0
0.236832 -0.470282 0
0.241856 -0.436951 0
0.275337 -0.431776 0
0.236832 -0.470282 0
0.269617 -0.464713 0
0.203681 -0.475126 0
0.236832 -0.470282 0
0.199046 -0.508068 0
0.231442 -0.502888 0
0.236832 -0.470282 0
0.269617 -0.464713 0
0.231442 -0.502888 0
0.263481 -0.496932 0
0.133383 -0.516071 0
0.166343 -0.512465 0
0.130071 -0.548736 0
0.162213 -0.544901 0
0.166343 -0.512465 0
0.199046 -0.508068 0
0.162213 -0.544901 0
0.194104 -0.540226 0
0.130071 -0.548736 0
0.162213 -0.544901 0
0.126559 -0.580555 0
0.157832 -0.576497 0
0.162213 -0.544901 0
0.194104 -0.540226 0
0.157832 -0.576497 0
0.188862 -0.571551 0
0.199046 -0.508068 0
0.231442 -0.502888 0
0.194104 -0.540226 0
0.225696 -0.534718 0
0.231442 -0.502888 0
0.263481 -0.496932 0
0.225696 -0.534718 0
0.256939 -0.528385 0
0.194104 -0.540226 0
0.225696 -0.534718 0
0.188862 -0.571551 0
0.219601 -0.565723 0
0.225696 -0.534718 0
0.256939 -0.528385 0
0.219601 -0.565723 0
0.250001 -0.559023 0
0.293893 -0.293898 0
0.329177 -0.289922 0
0.289917 -0.329182 0
0.324724 -0.324729 0
0.329177 -0.289922 0
0.363954 -0.285499 0
0.324724 -0.324729 0
0.35903 -0.319776 0
0.289917 -0.329182 0
0.324724 -0.324729 0
0.285495 -0.363959 0
0.319771 -0.359036 0
0.324724 -0.324729 0
0.35903 -0.319776 0
0.319771 -0.359036 0
0.353554 -0.353559 0
0.363954 -0.285499 0
0.398169 -0.280637 0
0.35903 -0.319776 0
0.392783 -0.314329 0
0.398169 -0.280637 0
0.431771 -0.275341 0
0.392783 -0.314329 0
0.42593 -0.308398 0
0.35903 -0.319776 0
0.392783 -0.314329 0
0.353554 -0.353559 0
0.386792 -0.347537 0
0.392783 -0.314329 0
0.42593 -0.308398 0
0.386792 -0.347537 0
0.419433 -0.340979 0
0.285495 -0.363959 0
0.319771 -0.359036 0
0.280632 -0.398175 0
0.314324 -0.392789 0
0.319771 -0.359036 0
0.353554 -0.353559 0
0.314324 -0.392789 0
0.347532 -0.386797 0
0.280632 -0.398175 0
0.314324 -0.392789 0
0.275337 -0.431776 0
0.308393 -0.425936 0
0.314324 -0.392789 0
0.347532 -0.386797 0
0.308393 -0.425936 0
0.340974 -0.419439 0
0.353554 -0.353559 0
0.386792 -0.347537 0
0.347532 -0.386797 0
0.380204 -0.380209 0
0.386792 -0.347537 0
0.419433 -0.340979 0
0.380204 -0.380209 0
0.412289 -0.373034 0
0.347532 -0.386797 0
0.380204 -0.380209 0
0.340974 -0.419439 0
0.37303 -0.412294 0
0.380204 -0.380209 0
0.412289 -0.373034 0
0.37303 -0.412294 0
0.40451 -0.404514 0
0.431771 -0.275341 0
0.464706 -0.269621 0
0.42593 -0.308398 0
0.458421 -0.301991 0
0.464706 -0.269621 0
0.496926 -0.263485 0
0.458421 -0.301991 0
0.490204 -0.295118 0
0.42593 -0.308398 0
0.458421 -0.301991 0
0.419433 -0.340979 0
0.451428 -0.333895 0
0.458421 -0.301991 0
0.490204 -0.295118 0
0.451428 -0.333895 0
0.482726 -0.326297 0
0.496926 -0.263485 0
0.528379 -0.256943 0
0.490204 -0.295118 0
0.521232 -0.287791 0
0.528379 -0.256943 0
0.559017 -0.250004 0
0.521232 -0.287791 0
0.551456 -0.280019 0
0.490204 -0.295118 0
0.521232 -0.287791 0
0.482726 -0.326297 0
0.513281 -0.318195 0
0.521232 -0.287791 0
0.551456 -0.280019 0
0.513281 -0.318195 0
0.543044 -0.309602 0
0.419433 -0.340979 0
0.451428 -0.333895 0
0.412289 -0.373034 0
0.443739 -0.365285 0
0.451428 -0.333895 0
0.482726 -0.326297 0
0.443739 -0.365285 0
0.474505 -0.356972 0
0.412289 -0.373034 0
0.443739 -0.365285 0
0.40451 -0.404514 0
0.435366 -0.396111 0
0.443739 -0.365285 0
0.474505 -0.356972 0
0.435366 -0.396111 0
0.465551 -0.387096 0
0.482726 -0.326297 0
0.513281 -0.318195 0
0.474505 -0.356972 0
0.504538 -0.348108 0
0.513281 -0.318195 0
0.543044 -0.309602 0
0.504538 -0.348108 0
0.533794 -0.338708 0
0.474505 -0.356972 0
0.504538 -0.348108 0
0.465551 -0.387096 0
0.495018 -0.377485 0
0.504538 -0.348108 0
0.533794 -0.338708 0
0.495018 -0.377485 0
0.523722 -0.367292 0
0.275337 -0.431776 0
0.308393 -0.425936 0
0.269617 -0.464713 0
0.301987 -0.458426 0
0.308393 -0.425936 0
0.340974 -0.419439 0
0.301987 -0.458426 0
0.333891 -0.451433 0
0.269617 -0.464713 0
0.301987 -0.458426 0
0.263481 -0.496932 0
0.295114 -0.49021 0
0.301987 -0.458426 0
0.333891 -0.451433 0
0.295114 -0.49021 0
0.326293 -0.482732 0
0.340974 -0.419439 0
0.37303 -0.412294 0
0.333891 -0.451433 0
0.36528 -0.443744 0
0.37303 -0.412294 0
0.40451 -0.404514 0
0.36528 -0.443744 0
0.396106 -0.435371 0
0.333891 -0.451433 0
0.36528 -0.443744 0
0.326293 -0.482732 0
0.356967 -0.47451 0
0.36528 -0.443744 0
0.396106 -0.435371 0
0.356967 -0.47451 0
0.387092 -0.465556 0
0.263481 -0.496932 0
0.295114 -0.49021 0
0.256939 -0.528385 0
0.287787 -0.521238 0
0.295114 -0.49021 0
0.326293 -0.482732 0
0.287787 -0.521238 0
0.318191 -0.513286 0
0.256939 -0.528385 0
0.287787 -0.521238 0
0.250001 -0.559023 0
0.280016 -0.551462 0
0.287787 -0.521238 0
0.318191 -0.513286 0
0.280016 -0.551462 0
0.309599 -0.543049 0
0.326293 -0.482732 0
0.356967 -0.47451 0
0.318191 -0.513286 0
0.348104 -0.504544 0
0.356967 -0.47451 0
0.387092 -0.465556 0
0.348104 -0.504544 0
0.377481 -0.495023 0
0.318191 -0.513286 0
0.348104 -0.504544 0
0.309599 -0.543049 0
0.338705 -0.5338 0
0.348104 -0.504544 0
0.377481 -0.495023 0
0.338705 -0.5338 0
0.367288 -0.523727 0
0.40451 -0.404514 0
0.435366 -0.396111 0
0.396106 -0.435371 0
0.426321 -0.426326 0
0.435366 -0.396111 0
0.465551 -0.387096 0
0.426321 -0.426326 0
0.455879 -0.416624 0
0.396106 -0.435371 0