# vtk DataFile Version 3.0
#This file was generated by the deal.II library on 2026/6/6 at 12:41:20
ASCII
DATASET UNSTRUCTURED_GRID

POINTS 400 double
0 0 0
0.1 0 0
0 0.1 0
0.1 0.1 0
0.1 0 0
0.2 0 0
0.1 0.1 0
0.2 0.1 0
0 0.1 0
0.1 0.1 0
0 0.2 0
0.1 0.2 0
0.1 0.1 0
0.2 0.1 0
0.1 0.2 0
0.2 0.2 0
0 0.2 0
0.1 0.2 0
0 0.3 0
0.1 0.3 0
0.1 0.2 0
0.2 0.2 0
0.1 0.3 0
0.2 0.3 0
0 0.3 0
0.1 0.3 0
0 0.4 0
0.1 0.4 0
0.1 0.3 0
0.2 0.3 0
0.1 0.4 0
0.2 0.4 0
0 0.4 0
0.1 0.4 0
0 0.5 0
0.1 0.5 0
0.1 0.4 0
0.2 0.4 0
0.1 0.5 0
0.2 0.5 0
0 0.5 0
0.1 0.5 0
0 0.6 0
0.1 0.6 0
0.1 0.5 0
0.2 0.5 0
0.1 0.6 0
0.2 0.6 0
0 0.6 0
0.1 0.6 0
0 0.7 0
0.1 0.7 0
0.1 0.6 0
0.2 0.6 0
0.1 0.7 0
0.2 0.7 0
0 0.7 0
0.1 0.7 0
0 0.8 0
0.1 0.8 0
0.1 0.7 0
0.2 0.7 0
0.1 0.8 0
0.2 0.8 0
0 0.8 0
0.1 0.8 0
0 0.9 0
0.1 0.9 0
0.1 0.8 0
0.2 0.8 0
0.1 0.9 0
0.2 0.9 0
0 0.9 0
0.1 0.9 0
0 1 0
0.1 1 0
0.1 0.9 0
0.2 0.9 0
0.1 1 0
0.2 1 0
0.2 0 0
0.3 0 0
0.2 0.1 0
0.3 0.1 0
0.3 0 0
0.4 0 0
0.3 0.1 0
0.4 0.1 0
0.2 0.1 0
0.3 0.1 0
0.2 0.2 0
0.3 0.2 0
0.3 0.1 0
0.4 0.1 0
0.3 0.2 0
0.4 0.2 0
0.2 0.2 0
0.3 0.2 0
0.2 0.3 0
0.3 0.3 0
0.3 0.2 0
0.4 0.2 0
0.3 0.3 0
0.4 0.3 0
0.2 0.3 0
0.3 0.3 0
0.2 0.4 0
0.3 0.4 0
0.3 0.3 0
0.4 0.3 0
0.3 0.4 0
0.4 0.4 0
0.2 0.4 0
0.3 0.4 0
0.2 0.5 0
0.3 0.5 0
0.3 0.4 0
0.4 0.4 0
0.3 0.5 0
0.4 0.5 0
0.2 0.5 0
0.3 0.5 0
0.2 0.6 0
0.3 0.6 0
0.3 0.5 0
0.4 0.5 0
0.3 0.6 0
0.4 0.6 0
0.2 0.6 0
0.3 0.6 0
0.2 0.7 0
0.3 0.7 0
0.3 0.6 0
0.4 0.6 0
0.3 0.7 0
0.4 0.7 0
0.2 0.7 0
0.3 0.7 0
0.2 0.8 0
0.3 0.8 0
0.3 0.7 0
0.4 0.7 0
0.3 0.8 0
0.4 0.8 0
0.2 0.8 0
0.3 0.8 0
0.2 0.9 0
0.3 0.9 0
0.3 0.8 0
0.4 0.8 0
0.3 0.9 0
0.4 0.9 0
0.2 0.9 0
0.3 0.9 0
0.2 1 0
0.3 1 0
0.3 0.9 0
0.4 0.9 0
0.3 1 0
0.4 1 0
0.4 0 0
0.5 0 0
0.4 0.1 0
0.5 0.1 0
0.5 0 0
0.6 0 0
0.5 0.1 0
0.6 0.1 0
0.4 0.1 0
0.5 0.1 0
0.4 0.2 0
0.5 0.2 0
0.5 0.1 0
0.6 0.1 0
0.5 0.2 0
0.6 0.2 0
0.4 0.2 0
0.5 0.2 0
0.4 0.3 0
0.5 0.3 0
0.5 0.2 0
0.6 0.2 0
0.5 0.3 0
0.6 0.3 0
0.4 0.3 0
0.5 0.3 0
0.4 0.4 0
0.5 0.4 0
0.5 0.3 0
0.6 0.3 0
0.5 0.4 0
0.6 0.4 0
0.4 0.4 0
0.5 0.4 0
0.4 0.5 0
0.5 0.5 0
0.5 0.4 0
0.6 0.4 0
0.5 0.5 0
0.6 0.5 0
0.4 0.5 0
0.5 0.5 0
0.4 0.6 0
0.5 0.6 0
0.5 0.5 0
0.6 0.5 0
0.5 0.6 0
0.6 0.6 0
0.4 0.6 0
0.5 0.6 0
0.4 0.7 0
0.5 0.7 0
0.5 0.6 0
0.6 0.6 0
0.5 0.7 0
0.6 0.7 0
0.4 0.7 0
0.5 0.7 0
0.4 0.8 0
0.5 0.8 0
0.5 0.7 0
0.6 0.7 0
0.5 0.8 0
0.6 0.8 0
0.4 0.8 0
0.5 0.8 0
0.4 0.9 0
0.5 0.9 0
0.5 0.8 0
0.6 0.8 0
0.5 0.9 0
0.6 0.9 0
0.4 0.9 0
0.5 0.9 0
0.4 1 0
0.5 1 0
0.5 0.9 0
0.6 0.9 0
0.5 1 0
0.6 1 0
0.6 0 0
0.7 0 0
0.6 0.1 0
0.7 0.1 0
0.7 0 0
0.8 0 0
0.7 0.1 0
0.8 0.1 0
0.6 0.1 0
0.7 0.1 0
0.6 0.2 0
0.7 0.2 0
0.7 0.1 0
0.8 0.1 0
0.7 0.2 0
0.8 0.2 0
0.6 0.2 0
0.7 0.2 0
0.6 0.3 0
0.7 0.3 0
0.7 0.2 0
0.8 0.2 0
0.7 0.3 0
0.8 0.3 0
0.6 0.3 0
0.7 0.3 0
0.6 0.4 0
0.7 0.4 0
0.7 0.3 0
0.8 0.3 0
0.7 0.4 0
0.8 0.4 0
0.6 0.4 0
0.7 0.4 0
0.6 0.5 0
0.7 0.5 0
0.7 0.4 0
0.8 0.4 0
0.7 0.5 0
0.8 0.5 0
0.6 0.5 0
0.7 0.5 0
0.6 0.6 0
0.7 0.6 0
0.7 0.5 0
0.8 0.5 0
0.7 0.6 0
0.8 0.6 0
0.6 0.6 0
0.7 0.6 0
0.6 0.7 0
0.7 0.7 0
0.7 0.6 0
0.8 0.6 0
0.7 0.7 0
0.8 0.7 0
0.6 0.7 0
0.7 0.7 0
0.6 0.8 0
0.7 0.8 0
0.7 0.7 0
0.8 0.7 0
0.7 0.8 0
0.8 0.8 0
0.6 0.8 0
0.7 0.8 0
0.6 0.9 0
0.7 0.9 0
0.7 0.8 0
0.8 0.8 0
0.7 0.9 0
0.8 0.9 0
0.6 0.9 0
0.7 0.9 0
0.6 1 0
0.7 1 0
0.7 0.9 0
0.8 0.9 0
0.7 1 0
0.8 1 0
0.8 0 0
0.9 0 0
0.8 0.1 0
0.9 0.1 0
0.9 0 0
1 0 0
0.9 0.1 0
1 0.1 0
0.8 0.1 0
0.9 0.1 0
0.8 0.2 0
0.9 0.2 0
0.9 0.1 0
1 0.1 0
0.9 0.2 0
1 0.2 0
0.8 0.2 0
0.9 0.2 0
0.8 0.3 0
0.9 0.3 0
0.9 0.2 0
1 0.2 0
0.9 0.3 0
1 0.3 0
0.8 0.3 0
0.9 0.3 0
0.8 0.4 0
0.9 0.4 0
0.9 0.3 0
1 0.3 0
0.9 0.4 0
1 0.4 0
0.8 0.4 0
0.9 0.4 0
0.8 0.5 0
0.9 0.5 0
0.9 0.4 0
1 0.4 0
0.9 0.5 0
1 0.5 0
0.8 0.5 0
0.9 0.5 0
0.8 0.6 0
0.9 0.6 0
0.9 0.5 0
1 0.5 0
0.9 0.6 0
1 0.6 0
0.8 0.6 0
0.9 0.6 0
0.8 0.7 0
0.9 0.7 0
0.9 0.6 0
1 0.6 0
0.9 0.7 0
1 0.7 0
0.8 0.7 0
0.9 0.7 0
0.8 0.8 0
0.9 0.8 0
0.9 0.7 0
1 0.7 0
0.9 0.8 0
1 0.8 0
0.8 0.8 0
0.9 0.8 0
0.8 0.9 0
0.9 0.9 0
0.9 0.8 0
1 0.8 0
0.9 0.9 0
1 0.9 0
0.8 0.9 0
0.9 0.9 0
0.8 1 0
0.9 1 0
0.9 0.9 0
1 0.9 0
0.9 1 0
1 1 0

CELLS 100 500
4	0	1	3	2
4	4	5	7	6
4	8	9	11	10
4	12	13	15	14
4	16	17	19	18
4	20	21	23	22
4	24	25	27	26
4	28	29	31	30
4	32	33	35	34
4	36	37	39	38
4	40	41	43	42
4	44	45	47	46
4	48	49	51	50
4	52	53	55	54
4	56	57	59	58
4	60	61	63	62
4	64	65	67	66
4	68	69	71	70
4	72	73	75	74
4	76	77	79	78
4	80	81	83	82
4	84	85	87	86
4	88	89	91	90
4	92	93	95	94
4	96	97	99	98
4	100	101	103	102
4	104	105	107	106
4	108	109	111	110
4	112	113	115	114
4	116	117	119	118
4	120	121	123	122
4	124	125	127	126
4	128	129	131	130
4	132	133	135	134
4	136	137	139	138
4	140	141	143	142
4	144	145	147	146
4	148	149	151	150
4	152	153	155	154
4	156	157	159	158
4	160	161	163	162
4	164	165	167	166
4	168	169	171	170
4	172	173	175	174
4	176	177	179	178
4	180	181	183	182
4	184	185	187	186
4	188	189	191	190
4	192	193	195	194
4	196	197	199	198
4	200	201	203	202
4	204	205	207	206
4	208	209	211	210
4	212	213	215	214
4	216	217	219	218
4	220	221	223	222
4	224	225	227	226
4	228	229	231	230
4	232	233	235	234
4	236	237	239	238
4	240	241	243	242
4	244	245	247	246
4	248	249	251	250
4	252	253	255	254
4	256	257	259	258
4	260	261	263	262
4	264	265	267	266
4	268	269	271	270
4	272	273	275	274
4	276	277	279	278
4	280	281	283	282
4	284	285	287	286
4	288	289	291	290
4	292	293	295	294
4	296	297	299	298
4	300	301	303	302
4	304	305	307	306
4	308	309	311	310
4	312	313	315	314
4	316	317	319	318
4	320	321	323	322
4	324	325	327	326
4	328	329	331	330
4	332	333	335	334
4	336	337	339	338
4	340	341	343	342
4	344	345	347	346
4	348	349	351	350
4	352	353	355	354
4	356	357	359	358
4	360	361	363	362
4	364	365	367	366
4	368	369	371	370
4	372	373	375	374
4	376	377	379	378
4	380	381	383	382
4	384	385	387	386
4	388	389	391	390
4	392	393	395	394
4	396	397	399	398

CELL_TYPES 100
 9 9 9 9 9 9 9 9 9 9 9 9 9 9 9 9 9 9 9 9 9 9 9 9 9 9 9 9 9 9 9 9 9 9 9 9 9 9 9 9 9 9 9 9 9 9 9 9 9 9 9 9 9 9 9 9 9 9 9 9 9 9 9 9 9 9 9 9 9 9 9 9 9 9 9 9 9 9 9 9 9 9 9 9 9 9 9 9 9 9 9 9 9 9 9 9 9 9 9 9
POINT_DATA 400
VECTORS velocity double
0 0 0
0.309017 0 0
0 -0.309017 0
0.293783 -0.294133 0
0.309017 0 0
0.587785 0 0
0.293783 -0.294133 0
0.558918 -0.250215 0
0 -0.309017 0
0.293783 -0.294133 0
0 -0.587785 0
0.250032 -0.559369 0
0.293783 -0.294133 0
0.558918 -0.250215 0
0.250032 -0.559369 0
0.475653 -0.475874 0
0 -0.587785 0
0.250032 -0.559369 0
0 -0.809017 0
0.181789 -0.769811 0
0.250032 -0.559369 0
0.475653 -0.475874 0
0.181789 -0.769811 0
0.345783 -0.654894 0
0 -0.809017 0
0.181789 -0.769811 0
0 -0.951057 0
0.095634 -0.904852 0
0.181789 -0.769811 0
0.345783 -0.654894 0
0.095634 -0.904852 0
0.181857 -0.769733 0
0 -0.951057 0
0.095634 -0.904852 0
0 -1 0
0.000143909 -0.95125 0
0.095634 -0.904852 0
0.181857 -0.769733 0
0.000143909 -0.95125 0
0.000214881 -0.809191 0
0 -1 0
0.000143909 -0.95125 0
0 -0.951057 0
-0.0954127 -0.904516 0
0.000143909 -0.95125 0
0.000214881 -0.809191 0
-0.0954127 -0.904516 0
-0.181527 -0.769453 0
0 -0.951057 0
-0.0954127 -0.904516 0
0 -0.809017 0
-0.181613 -0.76924 0
-0.0954127 -0.904516 0
-0.181527 -0.769453 0
-0.181613 -0.76924 0
-0.345477 -0.65442 0
0 -0.809017 0
-0.181613 -0.76924 0
0 -0.587785 0
-0.250002 -0.558728 0
-0.181613 -0.76924 0
-0.345477 -0.65442 0
-0.250002 -0.558728 0
-0.475545 -0.475355 0
0 -0.587785 0
-0.250002 -0.558728 0
0 -0.309017 0
-0.293963 -0.293666 0
-0.250002 -0.558728 0
-0.475545 -0.475355 0
-0.293963 -0.293666 0
-0.559097 -0.24984 0
0 -0.309017 0
-0.293963 -0.293666 0
0 -1.22465e-16 0
-0.309017 -1.16471e-16 0
-0.293963 -0.293666 0
-0.559097 -0.24984 0
-0.309017 -1.16471e-16 0
-0.587785 -9.9076e-17 0
0.587785 0 0
0.809017 0 0
0.558918 -0.250215 0
0.769448 -0.18184 0
0.809017 0 0
0.951057 0 0
0.769448 -0.18184 0
0.904687 -0.0955771 0
0.558918 -0.250215 0
0.769448 -0.18184 0
0.475653 -0.475874 0
0.654738 -0.345825 0
0.769448 -0.18184 0
0.904687 -0.0955771 0
0.654738 -0.345825 0
0.769738 -0.18178 0
0.475653 -0.475874 0
0.654738 -0.345825 0
0.345783 -0.654894 0
0.475896 -0.475844 0
0.654738 -0.345825 0
0.769738 -0.18178 0
0.475896 -0.475844 0
0.559441 -0.250146 0
0.345783 -0.654894 0
0.475896 -0.475844 0
0.181857 -0.769733 0
0.250278 -0.559265 0
0.475896 -0.475844 0
0.559441 -0.250146 0
0.250278 -0.559265 0
0.294264 -0.294014 0
0.181857 -0.769733 0
0.250278 -0.559265 0
0.000214881 -0.809191 0
0.00028293 -0.587942 0
0.250278 -0.559265 0
0.294264 -0.294014 0
0.00028293 -0.587942 0
0.0003392 -0.3091 0
0.000214881 -0.809191 0
0.00028293 -0.587942 0
-0.181527 -0.769453 0
-0.249831 -0.559092 0
0.00028293 -0.587942 0
0.0003392 -0.3091 0
-0.249831 -0.559092 0
-0.293672 -0.293895 0
-0.181527 -0.769453 0
-0.249831 -0.559092 0
-0.345477 -0.65442 0
-0.475479 -0.475533 0
-0.249831 -0.559092 0
-0.293672 -0.293895 0
-0.475479 -0.475533 0
-0.558929 -0.249945 0
-0.345477 -0.65442 0
-0.475479 -0.475533 0
-0.475545 -0.475355 0
-0.654549 -0.345439 0
-0.475479 -0.475533 0
-0.558929 -0.249945 0
-0.654549 -0.345439 0
-0.769451 -0.181571 0
-0.475545 -0.475355 0
-0.654549 -0.345439 0
-0.559097 -0.24984 0
-0.769531 -0.181559 0
-0.654549 -0.345439 0
-0.769451 -0.181571 0
-0.769531 -0.181559 0
-0.904633 -0.0954403 0
-0.559097 -0.24984 0
-0.769531 -0.181559 0
-0.587785 -9.9076e-17 0
-0.809017 -7.19829e-17 0
-0.769531 -0.181559 0
-0.904633 -0.0954403 0
-0.809017 -7.19829e-17 0
-0.951057 -3.78437e-17 0
0.951057 0 0
1 0 0
0.904687 -0.0955771 0
0.951338 1.29586e-05 0
1 0 0
0.951057 0 0
0.951338 1.29586e-05 0
0.904845 0.095562 0
0.904687 -0.0955771 0
0.951338 1.29586e-05 0
0.769738 -0.18178 0
0.809422 3.0014e-06 0
0.951338 1.29586e-05 0
0.904845 0.095562 0
0.809422 3.0014e-06 0
0.769878 0.181742 0
0.769738 -0.18178 0
0.809422 3.0014e-06 0
0.559441 -0.250146 0
0.588258 -5.90612e-06 0
0.809422 3.0014e-06 0
0.769878 0.181742 0
0.588258 -5.90612e-06 0
0.559518 0.250089 0
0.559441 -0.250146 0
0.588258 -5.90612e-06 0
0.294264 -0.294014 0
0.309463 5.49469e-06 0
0.588258 -5.90612e-06 0
0.559518 0.250089 0
0.309463 5.49469e-06 0
0.294334 0.294005 0
0.294264 -0.294014 0
0.309463 5.49469e-06 0
0.0003392 -0.3091 0
0.000366371 1.57686e-05 0
0.309463 5.49469e-06 0
0.294334 0.294005 0
0.000366371 1.57686e-05 0
0.000371277 0.309137 0
0.0003392 -0.3091 0
0.000366371 1.57686e-05 0
-0.293672 -0.293895 0
-0.308774 3.72943e-05 0
0.000366371 1.57686e-05 0
0.000371277 0.309137 0
-0.308774 3.72943e-05 0
-0.293637 0.293993 0
-0.293672 -0.293895 0
-0.308774 3.72943e-05 0
-0.558929 -0.249945 0
-0.587665 5.42959e-05 0
-0.308774 3.72943e-05 0
-0.293637 0.293993 0
-0.587665 5.42959e-05 0
-0.558889 0.250078 0
-0.558929 -0.249945 0
-0.587665 5.42959e-05 0
-0.769451 -0.181571 0
-0.809004 4.40349e-05 0
-0.587665 5.42959e-05 0
-0.558889 0.250078 0
-0.809004 4.40349e-05 0
-0.769365 0.181682 0
-0.769451 -0.181571 0
-0.809004 4.40349e-05 0
-0.904633 -0.0954403 0
-0.951144 1.66767e-05 0
-0.809004 4.40349e-05 0
-0.769365 0.181682 0
-0.951144 1.66767e-05 0
-0.904535 0.0954949 0
-0.904633 -0.0954403 0
-0.951144 1.66767e-05 0
-0.951057 -3.78437e-17 0
-1 -3.46914e-32 0
-0.951144 1.66767e-05 0
-0.904535 0.0954949 0
-1 -3.46914e-32 0
-0.951057 3.78437e-17 0
0.951057 0 0
0.809017 0 0
0.904845 0.095562 0
0.769714 0.181768 0
0.809017 0 0
0.587785 0 0
0.769714 0.181768 0
0.559226 0.250094 0
0.904845 0.095562 0
0.769714 0.181768 0
0.769878 0.181742 0
0.654934 0.345732 0
0.769714 0.181768 0
0.559226 0.250094 0
0.654934 0.345732 0
0.475815 0.475702 0
0.769878 0.181742 0
0.654934 0.345732 0
0.559518 0.250089 0
0.476017 0.47578 0
0.654934 0.345732 0
0.475815 0.475702 0
0.476017 0.47578 0
0.345902 0.654737 0
0.559518 0.250089 0
0.476017 0.47578 0
0.294334 0.294005 0
0.250393 0.559238 0
0.476017 0.47578 0
0.345902 0.654737 0
0.250393 0.559238 0
0.181934 0.76965 0
0.294334 0.294005 0
0.250393 0.559238 0
0.000371277 0.309137 0
0.000342107 0.587981 0
0.250393 0.559238 0
0.181934 0.76965 0
0.000342107 0.587981 0
0.000255802 0.809235 0
0.000371277 0.309137 0
0.000342107 0.587981 0
-0.293637 0.293993 0
-0.249757 0.559182 0
0.000342107 0.587981 0
0.000255802 0.809235 0
-0.249757 0.559182 0
-0.181456 0.769596 0
-0.293637 0.293993 0
-0.249757 0.559182 0
-0.558889 0.250078 0
-0.475417 0.475652 0
-0.249757 0.559182 0
-0.181456 0.769596 0
-0.475417 0.475652 0
-0.345389 0.654589 0
-0.558889 0.250078 0
-0.475417 0.475652 0
-0.769365 0.181682 0
-0.65442 0.345553 0
-0.475417 0.475652 0
-0.345389 0.654589 0
-0.65442 0.345553 0
-0.475404 0.475486 0
-0.769365 0.181682 0
-0.65442 0.345553 0
-0.904535 0.0954949 0
-0.769382 0.181625 0
-0.65442 0.345553 0
-0.475404 0.475486 0
-0.769382 0.181625 0
-0.558954 0.24992 0
-0.904535 0.0954949 0
-0.769382 0.181625 0
-0.951057 3.78437e-17 0
-0.809017 7.19829e-17 0
-0.769382 0.181625 0
-0.558954 0.24992 0
-0.809017 7.19829e-17 0
-0.587785 9.9076e-17 0
0.587785 0 0
0.309017 0 0
0.559226 0.250094 0
0.293983 0.294001 0
0.309017 0 0
1.22465e-16 0 0
0.293983 0.294001 0
1.16471e-16 0.309017 0
0.559226 0.250094 0
0.293983 0.294001 0
0.475815 0.475702 0
0.250133 0.559145 0
0.293983 0.294001 0
1.16471e-16 0.309017 0
0.250133 0.559145 0
9.9076e-17 0.587785 0
0.475815 0.475702 0
0.250133 0.559145 0
0.345902 0.654737 0
0.181852 0.76959 0
0.250133 0.559145 0
9.9076e-17 0.587785 0
0.181852 0.76959 0
7.19829e-17 0.809017 0
0.345902 0.654737 0
0.181852 0.76959 0
0.181934 0.76965 0
0.0956592 0.904706 0
0.181852 0.76959 0
7.19829e-17 0.809017 0
0.0956592 0.904706 0
3.78437e-17 0.951057 0
0.181934 0.76965 0
0.0956592 0.904706 0
0.000255802 0.809235 0
0.000147266 0.951232 0
0.0956592 0.904706 0
3.78437e-17 0.951057 0
0.000147266 0.951232 0
7.4988e-33 1 0
0.000255802 0.809235 0
0.000147266 0.951232 0
-0.181456 0.769596 0
-0.0953686 0.904625 0
0.000147266 0.951232 0
7.4988e-33 1 0
-0.0953686 0.904625 0
-3.78437e-17 0.951057 0
-0.181456 0.769596 0
-0.0953686 0.904625 0
-0.345389 0.654589 0
-0.181539 0.769434 0
-0.0953686 0.904625 0
-3.78437e-17 0.951057 0
-0.181539 0.769434 0
-7.19829e-17 0.809017 0
-0.345389 0.654589 0
-0.181539 0.769434 0
-0.475404 0.475486 0
-0.249902 0.558953 0
-0.181539 0.769434 0
-7.19829e-17 0.809017 0
-0.249902 0.558953 0
-9.9076e-17 0.587785 0
-0.475404 0.475486 0
-0.249902 0.558953 0
-0.558954 0.24992 0
-0.293884 0.293812 0
-0.249902 0.558953 0
-9.9076e-17 0.587785 0
-0.293884 0.293812 0
-1.16471e-16 0.309017 0
-0.558954 0.24992 0
-0.293884 0.293812 0
-0.587785 9.9076e-17 0
-0.309017 1.16471e-16 0
-0.293884 0.293812 0
-1.16471e-16 0.309017 0
-0.309017 1.16471e-16 0
-1.22465e-16 1.22465e-16 0
VECTORS velocity_error double
0 0 0
0 0 0
0 0 0
0.000109618 0.000240848 0
0 0 0
0 0 0
0.000109618 0.000240848 0
9.94618e-05 0.000215174 0
0 0 0
0.000109618 0.000240848 0
0 0 0
-3.2159e-05 0.000352345 0
0.000109618 0.000240848 0
9.94618e-05 0.000215174 0
-3.2159e-05 0.000352345 0
-0.000125186 0.000345993 0
0 0 0
-3.2159e-05 0.000352345 0
0 0 0
-0.000153518 0.000389811 0
-3.2159e-05 0.000352345 0
-0.000125186 0.000345993 0
-0.000153518 0.000389811 0
-0.00029159 0.000385568 0
0 0 0
-0.000153518 0.000389811 0
0 0 0
-0.00014249 0.000343876 0
-0.000153518 0.000389811 0
-0.00029159 0.000385568 0
-0.00014249 0.000343876 0
-0.000221585 0.000311741 0
0 0 0
-0.00014249 0.000343876 0
0 0 0
-0.000143909 0.000193238 0
-0.00014249 0.000343876 0
-0.000221585 0.000311741 0
-0.000143909 0.000193238 0
-0.000214881 0.000174149 0
0 0 0
-0.000143909 0.000193238 0
0 0 0
-7.87721e-05 7.02901e-06 0
-0.000143909 0.000193238 0
-0.000214881 0.000174149 0
-7.87721e-05 7.02901e-06 0
-0.000108494 3.20899e-05 0
0 0 0
-7.87721e-05 7.02901e-06 0
0 0 0
-2.30905e-05 -0.000180801 0
-7.87721e-05 7.02901e-06 0
-0.000108494 3.20899e-05 0
-2.30905e-05 -0.000180801 0
-1.45946e-05 -8.80508e-05 0
0 0 0
-2.30905e-05 -0.000180801 0
0 0 0
2.04313e-06 -0.000289494 0
-2.30905e-05 -0.000180801 0
-1.45946e-05 -8.80508e-05 0
2.04313e-06 -0.000289494 0
1.70836e-05 -0.000172937 0
0 0 0
2.04313e-06 -0.000289494 0
0 0 0
7.03601e-05 -0.000226361 0
2.04313e-06 -0.000289494 0
1.70836e-05 -0.000172937 0
7.03601e-05 -0.000226361 0
7.97152e-05 -0.000159538 0
0 0 0
7.03601e-05 -0.000226361 0
0 0 0
0 0 0
7.03601e-05 -0.000226361 0
7.97152e-05 -0.000159538 0
0 0 0
0 0 0
0 0 0
0 0 0
9.94618e-05 0.000215174 0
-2.69257e-05 0.000204015 0
0 0 0
0 0 0
-2.69257e-05 0.000204015 0
-0.000178009 8.56108e-05 0
9.94618e-05 0.000215174 0
-2.69257e-05 0.000204015 0
-0.000125186 0.000345993 0
-0.000229839 0.000333787 0
-2.69257e-05 0.000204015 0
-0.000178009 8.56108e-05 0
-0.000229839 0.000333787 0
-0.000316825 0.000144208 0
-0.000125186 0.000345993 0
-0.000229839 0.000333787 0
-0.00029159 0.000385568 0
-0.000367927 0.000315515 0
-0.000229839 0.000333787 0
-0.000316825 0.000144208 0
-0.000367927 0.000315515 0
-0.000423634 0.000145772 0
-0.00029159 0.000385568 0
-0.000367927 0.000315515 0
-0.000221585 0.000311741 0
-0.000277964 0.000247914 0
-0.000367927 0.000315515 0
-0.000423634 0.000145772 0
-0.000277964 0.000247914 0
-0.000371777 0.000120969 0
-0.000221585 0.000311741 0
-0.000277964 0.000247914 0
-0.000214881 0.000174149 0
-0.00028293 0.000157179 0
-0.000277964 0.000247914 0
-0.000371777 0.000120969 0
-0.00028293 0.000157179 0
-0.0003392 8.30565e-05 0
-0.000214881 0.000174149 0
-0.00028293 0.000157179 0
-0.000108494 3.20899e-05 0
-0.000169384 7.47639e-05 0
-0.00028293 0.000157179 0
-0.0003392 8.30565e-05 0
-0.000169384 7.47639e-05 0
-0.000220627 2.48308e-06 0
-0.000108494 3.20899e-05 0
-0.000169384 7.47639e-05 0
-1.45946e-05 -8.80508e-05 0
-4.92793e-05 5.02624e-06 0
-0.000169384 7.47639e-05 0
-0.000220627 2.48308e-06 0
-4.92793e-05 5.02624e-06 0
-8.83129e-05 -5.45044e-05 0
-1.45946e-05 -8.80508e-05 0
-4.92793e-05 5.02624e-06 0
1.70836e-05 -0.000172937 0
4.03293e-05 -5.22616e-05 0
-4.92793e-05 5.02624e-06 0
-8.83129e-05 -5.45044e-05 0
4.03293e-05 -5.22616e-05 0
2.99852e-05 -6.44368e-05 0
1.70836e-05 -0.000172937 0
4.03293e-05 -5.22616e-05 0
7.97152e-05 -0.000159538 0
0.000109909 -7.6324e-05 0
4.03293e-05 -5.22616e-05 0
2.99852e-05 -6.44368e-05 0
0.000109909 -7.6324e-05 0
0.000124137 -5.11975e-05 0
7.97152e-05 -0.000159538 0
0.000109909 -7.6324e-05 0
0 0 0
0 0 0
0.000109909 -7.6324e-05 0
0.000124137 -5.11975e-05 0
0 0 0
0 0 0
0 0 0
0 0 0
-0.000178009 8.56108e-05 0
-0.000281269 -1.29586e-05 0
0 0 0
0 0 0
-0.000281269 -1.29586e-05 0
-0.000336231 -7.05073e-05 0
-0.000178009 8.56108e-05 0
-0.000281269 -1.29586e-05 0
-0.000316825 0.000144208 0
-0.00040533 -3.0014e-06 0
-0.000281269 -1.29586e-05 0
-0.000336231 -7.05073e-05 0
-0.00040533 -3.0014e-06 0
-0.000456714 -0.000106277 0
-0.000316825 0.000144208 0
-0.00040533 -3.0014e-06 0
-0.000423634 0.000145772 0
-0.000473203 5.90612e-06 0
-0.00040533 -3.0014e-06 0
-0.000456714 -0.000106277 0
-0.000473203 5.90612e-06 0
-0.000501387 -8.89526e-05 0
-0.000423634 0.000145772 0
-0.000473203 5.90612e-06 0
-0.000371777 0.000120969 0
-0.000445875 -5.49469e-06 0
-0.000473203 5.90612e-06 0
-0.000501387 -8.89526e-05 0
-0.000445875 -5.49469e-06 0
-0.000441385 -0.000112541 0
-0.000371777 0.000120969 0
-0.000445875 -5.49469e-06 0
-0.0003392 8.30565e-05 0
-0.000366371 -1.57686e-05 0
-0.000445875 -5.49469e-06 0
-0.000441385 -0.000112541 0
-0.000366371 -1.57686e-05 0
-0.000371277 -0.000119604 0
-0.0003392 8.30565e-05 0
-0.000366371 -1.57686e-05 0
-0.000220627 2.48308e-06 0
-0.000242567 -3.72943e-05 0
-0.000366371 -1.57686e-05 0
-0.000371277 -0.000119604 0
-0.000242567 -3.72943e-05 0
-0.000255276 -0.000100207 0
-0.000220627 2.48308e-06 0
-0.000242567 -3.72943e-05 0
-8.83129e-05 -5.45044e-05 0
-0.000120603 -5.42959e-05 0
-0.000242567 -3.72943e-05 0
-0.000255276 -0.000100207 0
-0.000120603 -5.42959e-05 0
-0.000127977 -7.79576e-05 0
-8.83129e-05 -5.45044e-05 0
-0.000120603 -5.42959e-05 0
2.99852e-05 -6.44368e-05 0
-1.28734e-05 -4.40349e-05 0
-0.000120603 -5.42959e-05 0
-0.000127977 -7.79576e-05 0
-1.28734e-05 -4.40349e-05 0
-5.5883e-05 -4.60238e-05 0
2.99852e-05 -6.44368e-05 0
-1.28734e-05 -4.40349e-05 0
0.000124137 -5.11975e-05 0
8.76208e-05 -1.66767e-05 0
-1.28734e-05 -4.40349e-05 0
-5.5883e-05 -4.60238e-05 0
8.76208e-05 -1.66767e-05 0
2.67451e-05 -3.43547e-06 0
0.000124137 -5.11975e-05 0
8.76208e-05 -1.66767e-05 0
0 0 0
0 0 0
8.76208e-05 -1.66767e-05 0
2.67451e-05 -3.43547e-06 0
0 0 0
0 0 0
0 0 0
0 0 0
-0.000336231 -7.05073e-05 0
-0.000293157 -0.000132866 0
0 0 0
0 0 0
-0.000293157 -0.000132866 0
-0.000209288 -9.39131e-05 0
-0.000336231 -7.05073e-05 0
-0.000293157 -0.000132866 0
-0.000456714 -0.000106277 0
-0.000425567 -0.000240664 0
-0.000293157 -0.000132866 0
-0.000209288 -9.39131e-05 0
-0.000425567 -0.000240664 0
-0.000286416 -0.000173519 0
-0.000456714 -0.000106277 0
-0.000425567 -0.000240664 0
-0.000501387 -8.89526e-05 0
-0.000488991 -0.000251538 0
-0.000425567 -0.000240664 0
-0.000286416 -0.000173519 0
-0.000488991 -0.000251538 0
-0.000410362 -0.000228851 0
-0.000501387 -8.89526e-05 0
-0.000488991 -0.000251538 0
-0.000441385 -0.000112541 0
-0.000393196 -0.000221079 0
-0.000488991 -0.000251538 0
-0.000410362 -0.000228851 0
-0.000393196 -0.000221079 0
-0.000298265 -0.00022892 0
-0.000441385 -0.000112541 0
-0.000393196 -0.000221079 0
-0.000371277 -0.000119604 0
-0.000342107 -0.000195778 0
-0.000393196 -0.000221079 0
-0.000298265 -0.00022892 0
-0.000342107 -0.000195778 0
-0.000255802 -0.000218128 0
-0.000371277 -0.000119604 0
-0.000342107 -0.000195778 0
-0.000255276 -0.000100207 0
-0.000242968 -0.000164868 0
-0.000342107 -0.000195778 0
-0.000255802 -0.000218128 0
-0.000242968 -0.000164868 0
-0.000179524 -0.000174689 0
-0.000255276 -0.000100207 0
-0.000242968 -0.000164868 0
-0.000127977 -7.79576e-05 0
-0.00011151 -0.000123709 0
-0.000242968 -0.000164868 0
-0.000179524 -0.000174689 0
-0.00011151 -0.000123709 0
-0.000102936 -8.05802e-05 0
-0.000127977 -7.79576e-05 0
-0.00011151 -0.000123709 0
-5.5883e-05 -4.60238e-05 0
-8.87408e-05 -6.18222e-05 0
-0.00011151 -0.000123709 0
-0.000102936 -8.05802e-05 0
-8.87408e-05 -6.18222e-05 0
-0.000123987 4.18841e-05 0
-5.5883e-05 -4.60238e-05 0
-8.87408e-05 -6.18222e-05 0
2.67451e-05 -3.43547e-06 0
-3.86466e-05 1.04486e-05 0
-8.87408e-05 -6.18222e-05 0
-0.000123987 4.18841e-05 0
-3.86466e-05 1.04486e-05 0
-6.29261e-05 8.01557e-05 0
2.67451e-05 -3.43547e-06 0
-3.86466e-05 1.04486e-05 0
0 0 0
0 0 0
-3.86466e-05 1.04486e-05 0
-6.29261e-05 8.01557e-05 0
0 0 0
0 0 0
0 0 0
0 0 0
-0.000209288 -9.39131e-05 0
-9.05017e-05 -0.000108224 0
0 0 0
0 0 0
-9.05017e-05 -0.000108224 0
0 0 0
-0.000209288 -9.39131e-05 0
-9.05017e-05 -0.000108224 0
-0.000286416 -0.000173519 0
-0.000132837 -0.000127655 0
-9.05017e-05 -0.000108224 0
0 0 0
-0.000132837 -0.000127655 0
0 0 0
-0.000286416 -0.000173519 0
-0.000132837 -0.000127655 0
-0.000410362 -0.000228851 0
-0.000216488 -0.000169199 0
-0.000132837 -0.000127655 0
0 0 0
-0.000216488 -0.000169199 0
0 0 0
-0.000410362 -0.000228851 0
-0.000216488 -0.000169199 0
-0.000298265 -0.00022892 0
-0.000167655 -0.000198002 0
-0.000216488 -0.000169199 0
0 0 0
-0.000167655 -0.000198002 0
0 0 0
-0.000298265 -0.00022892 0
-0.000167655 -0.000198002 0
-0.000255802 -0.000218128 0
-0.000147266 -0.000175738 0
-0.000167655 -0.000198002 0
0 0 0
-0.000147266 -0.000175738 0
0 0 0
-0.000255802 -0.000218128 0
-0.000147266 -0.000175738 0
-0.000179524 -0.000174689 0
-0.000122917 -0.000116741 0
-0.000147266 -0.000175738 0
0 0 0
-0.000122917 -0.000116741 0
0 0 0
-0.000179524 -0.000174689 0
-0.000122917 -0.000116741 0
-0.000102936 -8.05802e-05 0
-9.65471e-05 -1.31976e-05 0
-0.000122917 -0.000116741 0
0 0 0
-9.65471e-05 -1.31976e-05 0
0 0 0
-0.000102936 -8.05802e-05 0
-9.65471e-05 -1.31976e-05 0
-0.000123987 4.18841e-05 0
-9.78189e-05 6.39003e-05 0
-9.65471e-05 -1.31976e-05 0
0 0 0
-9.78189e-05 6.39003e-05 0
0 0 0
-0.000123987 4.18841e-05 0
-9.78189e-05 6.39003e-05 0
-6.29261e-05 8.01557e-05 0
-8.87876e-06 8.05603e-05 0
-9.78189e-05 6.39003e-05 0
0 0 0
-8.87876e-06 8.05603e-05 0
0 0 0
-6.29261e-05 8.01557e-05 0
-8.87876e-06 8.05603e-05 0
0 0 0
0 0 0
-8.87876e-06 8.05603e-05 0
0 0 0
0 0 0
0 0 0
SCALARS pressure double 1
LOOKUP_TABLE default
-0.001946 -0.000368353 0.312988 0.297475 -0.000368353 -0.00034471 0.297475 0.253413 0.312988 0.297475 0.596718 0.567709 0.297475 0.253413 0.567709 0.483139 0.596718 0.567709 0.822084 0.781966 0.567709 0.483139 0.781966 0.665413 0.822084 0.781966 0.966868 0.919607 0.781966 0.665413 0.919607 0.782487 0.966868 0.919607 1.01667 0.967032 0.919607 0.782487 0.967032 0.822848 1.01667 0.967032 0.966833 0.919577 0.967032 0.822848 0.919577 0.782462 0.966833 0.919577 0.822143 0.781949 0.919577 0.782462 0.781949 0.665378 0.822143 0.781949 0.596751 0.567712 0.781949 0.665378 0.567712 0.483103 0.596751 0.567712 0.313115 0.297532 0.567712 0.483103 0.297532 0.253373 0.313115 0.297532 -0.00171204 -0.000308573 0.297532 0.253373 -0.000308573 -0.000349002 -0.00034471 0.000105397 0.253413 0.184348 0.000105397 0.000175908 0.184348 0.0971252 0.253413 0.184348 0.483139 0.351291 0.184348 0.0971252 0.351291 0.18497 0.483139 0.351291 0.665413 0.483753 0.351291 0.18497 0.483753 0.254762 0.665413 0.483753 0.782487 0.568879 0.483753 0.254762 0.568879 0.299615 0.782487 0.568879 0.822848 0.598235 0.568879 0.299615 0.598235 0.315074 0.822848 0.598235 0.782462 0.56888 0.598235 0.315074 0.56888 0.299594 0.782462 0.56888 0.665378 0.483738 0.56888 0.299594 0.483738 0.254702 0.665378 0.483738 0.483103 0.351274 0.483738 0.254702 0.351274 0.184929 0.483103 0.351274 0.253373 0.1843 0.351274 0.184929 0.1843 0.0970597 0.253373 0.1843 -0.000349002 -2.96209e-05 0.1843 0.0970597 -2.96209e-05 0.000164794 0.000175908 0.000106469 0.0971252 0.000209019 0.000106469 -0.00017868 0.000209019 -0.0969283 0.0971252 0.000209019 0.18497 0.000430449 0.000209019 -0.0969283 0.000430449 -0.184343 0.18497 0.000430449 0.254762 0.000706836 0.000430449 -0.184343 0.000706836 -0.253542 0.254762 0.000706836 0.299615 0.000933254 0.000706836 -0.253542 0.000933254 -0.297922 0.299615 0.000933254 0.315074 0.00101175 0.000933254 -0.297922 0.00101175 -0.313222 0.315074 0.00101175 0.299594 0.000919238 0.00101175 -0.313222 0.000919238 -0.297944 0.299594 0.000919238 0.254702 0.000677075 0.000919238 -0.297944 0.000677075 -0.253573 0.254702 0.000677075 0.184929 0.000393119 0.000677075 -0.253573 0.000393119 -0.184405 0.184929 0.000393119 0.0970597 0.000166107 0.000393119 -0.184405 0.000166107 -0.0970047 0.0970597 0.000166107 0.000164794 2.30921e-05 0.000166107 -0.0970047 2.30921e-05 -0.000237532 -0.00017868 -0.000730862 -0.0969283 -0.184748 -0.000730862 -0.00116833 -0.184748 -0.254653 -0.0969283 -0.184748 -0.184343 -0.351181 -0.184748 -0.254653 -0.351181 -0.48374 -0.184343 -0.351181 -0.253542 -0.483066 -0.351181 -0.48374 -0.483066 -0.665323 -0.253542 -0.483066 -0.297922 -0.567692 -0.483066 -0.665323 -0.567692 -0.781897 -0.297922 -0.567692 -0.313222 -0.596852 -0.567692 -0.781897 -0.596852 -0.822027 -0.313222 -0.596852 -0.297944 -0.567719 -0.596852 -0.822027 -0.567719 -0.781901 -0.297944 -0.567719 -0.253573 -0.483082 -0.567719 -0.781901 -0.483082 -0.66532 -0.253573 -0.483082 -0.184405 -0.351236 -0.483082 -0.66532 -0.351236 -0.483777 -0.184405 -0.351236 -0.0970047 -0.184788 -0.351236 -0.483777 -0.184788 -0.254661 -0.0970047 -0.184788 -0.000237532 -0.000717562 -0.184788 -0.254661 -0.000717562 -0.00120106 -0.00116833 -0.00193888 -0.254653 -0.299538 -0.00193888 -0.00103373 -0.299538 -0.315343 -0.254653 -0.299538 -0.48374 -0.568961 -0.299538 -0.315343 -0.568961 -0.598296 -0.48374 -0.568961 -0.665323 -0.78239 -0.568961 -0.598296 -0.78239 -0.822756 -0.665323 -0.78239 -0.781897 -0.919458 -0.78239 -0.822756 -0.919458 -0.966898 -0.781897 -0.919458 -0.822027 -0.966658 -0.919458 -0.966898 -0.966658 -1.01654 -0.822027 -0.966658 -0.781901 -0.919479 -0.966658 -1.01654 -0.919479 -0.966885 -0.781901 -0.919479 -0.66532 -0.782414 -0.919479 -0.966885 -0.782414 -0.822846 -0.66532 -0.782414 -0.483777 -0.568989 -0.782414 -0.822846 -0.568989 -0.598235 -0.483777 -0.568989 -0.254661 -0.299482 -0.568989 -0.598235 -0.299482 -0.315236 -0.254661 -0.299482 -0.00120106 -0.00186021 -0.299482 -0.315236 -0.00186021 -0.000800171 
SCALARS pressure_error double 1
LOOKUP_TABLE default