# vtk DataFile Version 3.0
#This file was generated by the deal.II library on 2026/6/5 at 21:07:31
ASCII
DATASET UNSTRUCTURED_GRID

POINTS 2752 double
0.6 0.2 0
0.65 0.2 0
0.6 0.25 0
0.65 0.25 0
0.65 0.2 0
0.7 0.2 0
0.65 0.25 0
0.7 0.25 0
0.6 0.25 0
0.65 0.25 0
0.6 0.3 0
0.65 0.3 0
0.65 0.25 0
0.7 0.25 0
0.65 0.3 0
0.7 0.3 0
0.7 0.2 0
0.75 0.2 0
0.7 0.25 0
0.75 0.25 0
0.75 0.2 0
0.8 0.2 0
0.75 0.25 0
0.8 0.25 0
0.7 0.25 0
0.75 0.25 0
0.7 0.3 0
0.75 0.3 0
0.75 0.25 0
0.8 0.25 0
0.75 0.3 0
0.8 0.3 0
0.6 0.3 0
0.65 0.3 0
0.6 0.35 0
0.65 0.35 0
0.65 0.3 0
0.7 0.3 0
0.65 0.35 0
0.7 0.35 0
0.6 0.35 0
0.65 0.35 0
0.6 0.4 0
0.65 0.4 0
0.65 0.35 0
0.7 0.35 0
0.65 0.4 0
0.7 0.4 0
0.7 0.3 0
0.75 0.3 0
0.7 0.35 0
0.75 0.35 0
0.75 0.3 0
0.8 0.3 0
0.75 0.35 0
0.8 0.35 0
0.7 0.35 0
0.75 0.35 0
0.7 0.4 0
0.75 0.4 0
0.75 0.35 0
0.8 0.35 0
0.75 0.4 0
0.8 0.4 0
0.2 0 0
0.25 0 0
0.2 0.05 0
0.25 0.05 0
0.25 0 0
0.3 0 0
0.25 0.05 0
0.3 0.05 0
0.2 0.05 0
0.25 0.05 0
0.2 0.1 0
0.25 0.1 0
0.25 0.05 0
0.3 0.05 0
0.25 0.1 0
0.3 0.1 0
0.3 0 0
0.35 0 0
0.3 0.05 0
0.35 0.05 0
0.35 0 0
0.4 0 0
0.35 0.05 0
0.4 0.05 0
0.3 0.05 0
0.35 0.05 0
0.3 0.1 0
0.35 0.1 0
0.35 0.05 0
0.4 0.05 0
0.35 0.1 0
0.4 0.1 0
0.2 0.1 0
0.25 0.1 0
0.2 0.15 0
0.25 0.15 0
0.25 0.1 0
0.3 0.1 0
0.25 0.15 0
0.3 0.15 0
0.2 0.15 0
0.25 0.15 0
0.2 0.2 0
0.25 0.2 0
0.25 0.15 0
0.3 0.15 0
0.25 0.2 0
0.3 0.2 0
0.3 0.1 0
0.35 0.1 0
0.3 0.15 0
0.35 0.15 0
0.35 0.1 0
0.4 0.1 0
0.35 0.15 0
0.4 0.15 0
0.3 0.15 0
0.35 0.15 0
0.3 0.2 0
0.35 0.2 0
0.35 0.15 0
0.4 0.15 0
0.35 0.2 0
0.4 0.2 0
0.2 0.2 0
0.25 0.2 0
0.2 0.25 0
0.25 0.25 0
0.25 0.2 0
0.3 0.2 0
0.25 0.25 0
0.3 0.25 0
0.2 0.25 0
0.25 0.25 0
0.2 0.3 0
0.25 0.3 0
0.25 0.25 0
0.3 0.25 0
0.25 0.3 0
0.3 0.3 0
0.3 0.2 0
0.35 0.2 0
0.3 0.25 0
0.35 0.25 0
0.35 0.2 0
0.4 0.2 0
0.35 0.25 0
0.4 0.25 0
0.3 0.25 0
0.35 0.25 0
0.3 0.3 0
0.35 0.3 0
0.35 0.25 0
0.4 0.25 0
0.35 0.3 0
0.4 0.3 0
0.2 0.3 0
0.25 0.3 0
0.2 0.35 0
0.25 0.35 0
0.25 0.3 0
0.3 0.3 0
0.25 0.35 0
0.3 0.35 0
0.2 0.35 0
0.25 0.35 0
0.2 0.4 0
0.25 0.4 0
0.25 0.35 0
0.3 0.35 0
0.25 0.4 0
0.3 0.4 0
0.3 0.3 0
0.35 0.3 0
0.3 0.35 0
0.35 0.35 0
0.35 0.3 0
0.4 0.3 0
0.35 0.35 0
0.4 0.35 0
0.3 0.35 0
0.35 0.35 0
0.3 0.4 0
0.35 0.4 0
0.35 0.35 0
0.4 0.35 0
0.35 0.4 0
0.4 0.4 0
0.2 0.4 0
0.25 0.4 0
0.2 0.45 0
0.25 0.45 0
0.25 0.4 0
0.3 0.4 0
0.25 0.45 0
0.3 0.45 0
0.2 0.45 0
0.25 0.45 0
0.2 0.5 0
0.25 0.5 0
0.25 0.45 0
0.3 0.45 0
0.25 0.5 0
0.3 0.5 0
0.4 0 0
0.45 0 0
0.4 0.05 0
0.45 0.05 0
0.45 0 0
0.5 0 0
0.45 0.05 0
0.5 0.05 0
0.4 0.05 0
0.45 0.05 0
0.4 0.1 0
0.45 0.1 0
0.45 0.05 0
0.5 0.05 0
0.45 0.1 0
0.5 0.1 0
0.5 0 0
0.55 0 0
0.5 0.05 0
0.55 0.05 0
0.55 0 0
0.6 0 0
0.55 0.05 0
0.6 0.05 0
0.5 0.05 0
0.55 0.05 0
0.5 0.1 0
0.55 0.1 0
0.55 0.05 0
0.6 0.05 0
0.55 0.1 0
0.6 0.1 0
0.4 0.1 0
0.45 0.1 0
0.4 0.15 0
0.45 0.15 0
0.45 0.1 0
0.5 0.1 0
0.45 0.15 0
0.5 0.15 0
0.4 0.15 0
0.45 0.15 0
0.4 0.2 0
0.45 0.2 0
0.45 0.15 0
0.5 0.15 0
0.45 0.2 0
0.5 0.2 0
0.5 0.1 0
0.55 0.1 0
0.5 0.15 0
0.55 0.15 0
0.55 0.1 0
0.6 0.1 0
0.55 0.15 0
0.6 0.15 0
0.5 0.15 0
0.55 0.15 0
0.5 0.2 0
0.55 0.2 0
0.55 0.15 0
0.6 0.15 0
0.55 0.2 0
0.6 0.2 0
0.4 0.2 0
0.45 0.2 0
0.4 0.25 0
0.45 0.25 0
0.45 0.2 0
0.5 0.2 0
0.45 0.25 0
0.5 0.25 0
0.4 0.25 0
0.45 0.25 0
0.4 0.3 0
0.45 0.3 0
0.45 0.25 0
0.5 0.25 0
0.45 0.3 0
0.5 0.3 0
0.5 0.2 0
0.55 0.2 0
0.5 0.25 0
0.55 0.25 0
0.55 0.2 0
0.6 0.2 0
0.55 0.25 0
0.6 0.25 0
0.5 0.25 0
0.55 0.25 0
0.5 0.3 0
0.55 0.3 0
0.55 0.25 0
0.6 0.25 0
0.55 0.3 0
0.6 0.3 0
0.6 0 0
0.65 0 0
0.6 0.05 0
0.65 0.05 0
0.65 0 0
0.7 0 0
0.65 0.05 0
0.7 0.05 0
0.6 0.05 0
0.65 0.05 0
0.6 0.1 0
0.65 0.1 0
0.65 0.05 0
0.7 0.05 0
0.65 0.1 0
0.7 0.1 0
0.7 0 0
0.75 0 0
0.7 0.05 0
0.75 0.05 0
0.75 0 0
0.8 0 0
0.75 0.05 0
0.8 0.05 0
0.7 0.05 0
0.75 0.05 0
0.7 0.1 0
0.75 0.1 0
0.75 0.05 0
0.8 0.05 0
0.75 0.1 0
0.8 0.1 0
0.6 0.1 0
0.65 0.1 0
0.6 0.15 0
0.65 0.15 0
0.65 0.1 0
0.7 0.1 0
0.65 0.15 0
0.7 0.15 0
0.6 0.15 0
0.65 0.15 0
0.6 0.2 0
0.65 0.2 0
0.65 0.15 0
0.7 0.15 0
0.65 0.2 0
0.7 0.2 0
0.7 0.1 0
0.75 0.1 0
0.7 0.15 0
0.75 0.15 0
0.75 0.1 0
0.8 0.1 0
0.75 0.15 0
0.8 0.15 0
0.7 0.15 0
0.75 0.15 0
0.7 0.2 0
0.75 0.2 0
0.75 0.15 0
0.8 0.15 0
0.75 0.2 0
0.8 0.2 0
0.7 0.4 0
0.75 0.4 0
0.7 0.45 0
0.75 0.45 0
0.75 0.4 0
0.8 0.4 0
0.75 0.45 0
0.8 0.45 0
0.7 0.45 0
0.75 0.45 0
0.7 0.5 0
0.75 0.5 0
0.75 0.45 0
0.8 0.45 0
0.75 0.5 0
0.8 0.5 0
0 0 0
0.05 0 0
0 0.05 0
0.05 0.05 0
0.05 0 0
0.1 0 0
0.05 0.05 0
0.1 0.05 0
0 0.05 0
0.05 0.05 0
0 0.1 0
0.05 0.1 0
0.05 0.05 0
0.1 0.05 0
0.05 0.1 0
0.1 0.1 0
0.1 0 0
0.15 0 0
0.1 0.05 0
0.15 0.05 0
0.15 0 0
0.2 0 0
0.15 0.05 0
0.2 0.05 0
0.1 0.05 0
0.15 0.05 0
0.1 0.1 0
0.15 0.1 0
0.15 0.05 0
0.2 0.05 0
0.15 0.1 0
0.2 0.1 0
0 0.1 0
0.05 0.1 0
0 0.15 0
0.05 0.15 0
0.05 0.1 0
0.1 0.1 0
0.05 0.15 0
0.1 0.15 0
0 0.15 0
0.05 0.15 0
0 0.2 0
0.05 0.2 0
0.05 0.15 0
0.1 0.15 0
0.05 0.2 0
0.1 0.2 0
0.1 0.1 0
0.15 0.1 0
0.1 0.15 0
0.15 0.15 0
0.15 0.1 0
0.2 0.1 0
0.15 0.15 0
0.2 0.15 0
0.1 0.15 0
0.15 0.15 0
0.1 0.2 0
0.15 0.2 0
0.15 0.15 0
0.2 0.15 0
0.15 0.2 0
0.2 0.2 0
0 0.2 0
0.05 0.2 0
0 0.25 0
0.05 0.25 0
0.05 0.2 0
0.1 0.2 0
0.05 0.25 0
0.1 0.25 0
0 0.25 0
0.05 0.25 0
0 0.3 0
0.05 0.3 0
0.05 0.25 0
0.1 0.25 0
0.05 0.3 0
0.1 0.3 0
0.1 0.2 0
0.15 0.2 0
0.1 0.25 0
0.15 0.25 0
0.15 0.2 0
0.2 0.2 0
0.15 0.25 0
0.2 0.25 0
0.1 0.25 0
0.15 0.25 0
0.1 0.3 0
0.15 0.3 0
0.15 0.25 0
0.2 0.25 0
0.15 0.3 0
0.2 0.3 0
0 0.3 0
0.05 0.3 0
0 0.35 0
0.05 0.35 0
0.05 0.3 0
0.1 0.3 0
0.05 0.35 0
0.1 0.35 0
0 0.35 0
0.05 0.35 0
0 0.4 0
0.05 0.4 0
0.05 0.35 0
0.1 0.35 0
0.05 0.4 0
0.1 0.4 0
0.1 0.3 0
0.15 0.3 0
0.1 0.35 0
0.15 0.35 0
0.15 0.3 0
0.2 0.3 0
0.15 0.35 0
0.2 0.35 0
0.1 0.35 0
0.15 0.35 0
0.1 0.4 0
0.15 0.4 0
0.15 0.35 0
0.2 0.35 0
0.15 0.4 0
0.2 0.4 0
0.4 0.9 0
0.45 0.9 0
0.4 0.95 0
0.45 0.95 0
0.45 0.9 0
0.5 0.9 0
0.45 0.95 0
0.5 0.95 0
0.4 0.95 0
0.45 0.95 0
0.4 1 0
0.45 1 0
0.45 0.95 0
0.5 0.95 0
0.45 1 0
0.5 1 0
0.8 0 0
0.85 0 0
0.8 0.05 0
0.85 0.05 0
0.85 0 0
0.9 0 0
0.85 0.05 0
0.9 0.05 0
0.8 0.05 0
0.85 0.05 0
0.8 0.1 0
0.85 0.1 0
0.85 0.05 0
0.9 0.05 0
0.85 0.1 0
0.9 0.1 0
0.9 0 0
0.95 0 0
0.9 0.05 0
0.95 0.05 0
0.95 0 0
1 0 0
0.95 0.05 0
1 0.05 0
0.9 0.05 0
0.95 0.05 0
0.9 0.1 0
0.95 0.1 0
0.95 0.05 0
1 0.05 0
0.95 0.1 0
1 0.1 0
0.8 0.1 0
0.85 0.1 0
0.8 0.15 0
0.85 0.15 0
0.85 0.1 0
0.9 0.1 0
0.85 0.15 0
0.9 0.15 0
0.8 0.15 0
0.85 0.15 0
0.8 0.2 0
0.85 0.2 0
0.85 0.15 0
0.9 0.15 0
0.85 0.2 0
0.9 0.2 0
0.9 0.1 0
0.95 0.1 0
0.9 0.15 0
0.95 0.15 0
0.95 0.1 0
1 0.1 0
0.95 0.15 0
1 0.15 0
0.9 0.15 0
0.95 0.15 0
0.9 0.2 0
0.95 0.2 0
0.95 0.15 0
1 0.15 0
0.95 0.2 0
1 0.2 0
0.8 0.2 0
0.85 0.2 0
0.8 0.25 0
0.85 0.25 0
0.85 0.2 0
0.9 0.2 0
0.85 0.25 0
0.9 0.25 0
0.8 0.25 0
0.85 0.25 0
0.8 0.3 0
0.85 0.3 0
0.85 0.25 0
0.9 0.25 0
0.85 0.3 0
0.9 0.3 0
0.9 0.2 0
0.95 0.2 0
0.9 0.25 0
0.95 0.25 0
0.95 0.2 0
1 0.2 0
0.95 0.25 0
1 0.25 0
0.9 0.25 0
0.95 0.25 0
0.9 0.3 0
0.95 0.3 0
0.95 0.25 0
1 0.25 0
0.95 0.3 0
1 0.3 0
0.8 0.3 0
0.85 0.3 0
0.8 0.35 0
0.85 0.35 0
0.85 0.3 0
0.9 0.3 0
0.85 0.35 0
0.9 0.35 0
0.8 0.35 0
0.85 0.35 0
0.8 0.4 0
0.85 0.4 0
0.85 0.35 0
0.9 0.35 0
0.85 0.4 0
0.9 0.4 0
0.9 0.3 0
0.95 0.3 0
0.9 0.35 0
0.95 0.35 0
0.95 0.3 0
1 0.3 0
0.95 0.35 0
1 0.35 0
0.9 0.35 0
0.95 0.35 0
0.9 0.4 0
0.95 0.4 0
0.95 0.35 0
1 0.35 0
0.95 0.4 0
1 0.4 0
0.8 0.4 0
0.85 0.4 0
0.8 0.45 0
0.85 0.45 0
0.85 0.4 0
0.9 0.4 0
0.85 0.45 0
0.9 0.45 0
0.8 0.45 0
0.85 0.45 0
0.8 0.5 0
0.85 0.5 0
0.85 0.45 0
0.9 0.45 0
0.85 0.5 0
0.9 0.5 0
0.9 0.4 0
0.95 0.4 0
0.9 0.45 0
0.95 0.45 0
0.95 0.4 0
1 0.4 0
0.95 0.45 0
1 0.45 0
0.9 0.45 0
0.95 0.45 0
0.9 0.5 0
0.95 0.5 0
0.95 0.45 0
1 0.45 0
0.95 0.5 0
1 0.5 0
0.9 0.5 0
0.95 0.5 0
0.9 0.55 0
0.95 0.55 0
0.95 0.5 0
1 0.5 0
0.95 0.55 0
1 0.55 0
0.9 0.55 0
0.95 0.55 0
0.9 0.6 0
0.95 0.6 0
0.95 0.55 0
1 0.55 0
0.95 0.6 0
1 0.6 0
0.4 0.4 0
0.45 0.4 0
0.4 0.45 0
0.45 0.45 0
0.45 0.4 0
0.5 0.4 0
0.45 0.45 0
0.5 0.45 0
0.4 0.45 0
0.45 0.45 0
0.4 0.5 0
0.45 0.5 0
0.45 0.45 0
0.5 0.45 0
0.45 0.5 0
0.5 0.5 0
0.5 0.4 0
0.55 0.4 0
0.5 0.45 0
0.55 0.45 0
0.55 0.4 0
0.6 0.4 0
0.55 0.45 0
0.6 0.45 0
0.5 0.45 0
0.55 0.45 0
0.5 0.5 0
0.55 0.5 0
0.55 0.45 0
0.6 0.45 0
0.55 0.5 0
0.6 0.5 0
0.4 0.5 0
0.45 0.5 0
0.4 0.55 0
0.45 0.55 0
0.45 0.5 0
0.5 0.5 0
0.45 0.55 0
0.5 0.55 0
0.4 0.55 0
0.45 0.55 0
0.4 0.6 0
0.45 0.6 0
0.45 0.55 0
0.5 0.55 0
0.45 0.6 0
0.5 0.6 0
0.5 0.5 0
0.55 0.5 0
0.5 0.55 0
0.55 0.55 0
0.55 0.5 0
0.6 0.5 0
0.55 0.55 0
0.6 0.55 0
0.5 0.55 0
0.55 0.55 0
0.5 0.6 0
0.55 0.6 0
0.55 0.55 0
0.6 0.55 0
0.55 0.6 0
0.6 0.6 0
0 0.6 0
0.05 0.6 0
0 0.65 0
0.05 0.65 0
0.05 0.6 0
0.1 0.6 0
0.05 0.65 0
0.1 0.65 0
0 0.65 0
0.05 0.65 0
0 0.7 0
0.05 0.7 0
0.05 0.65 0
0.1 0.65 0
0.05 0.7 0
0.1 0.7 0
0.1 0.6 0
0.15 0.6 0
0.1 0.65 0
0.15 0.65 0
0.15 0.6 0
0.2 0.6 0
0.15 0.65 0
0.2 0.65 0
0.1 0.65 0
0.15 0.65 0
0.1 0.7 0
0.15 0.7 0
0.15 0.65 0
0.2 0.65 0
0.15 0.7 0
0.2 0.7 0
0 0.7 0
0.05 0.7 0
0 0.75 0
0.05 0.75 0
0.05 0.7 0
0.1 0.7 0
0.05 0.75 0
0.1 0.75 0
0 0.75 0
0.05 0.75 0
0 0.8 0
0.05 0.8 0
0.05 0.75 0
0.1 0.75 0
0.05 0.8 0
0.1 0.8 0
0.1 0.7 0
0.15 0.7 0
0.1 0.75 0
0.15 0.75 0
0.15 0.7 0
0.2 0.7 0
0.15 0.75 0
0.2 0.75 0
0.1 0.75 0
0.15 0.75 0
0.1 0.8 0
0.15 0.8 0
0.15 0.75 0
0.2 0.75 0
0.15 0.8 0
0.2 0.8 0
0 0.8 0
0.05 0.8 0
0 0.85 0
0.05 0.85 0
0.05 0.8 0
0.1 0.8 0
0.05 0.85 0
0.1 0.85 0
0 0.85 0
0.05 0.85 0
0 0.9 0
0.05 0.9 0
0.05 0.85 0
0.1 0.85 0
0.05 0.9 0
0.1 0.9 0
0.1 0.8 0
0.15 0.8 0
0.1 0.85 0
0.15 0.85 0
0.15 0.8 0
0.2 0.8 0
0.15 0.85 0
0.2 0.85 0
0.1 0.85 0
0.15 0.85 0
0.1 0.9 0
0.15 0.9 0
0.15 0.85 0
0.2 0.85 0
0.15 0.9 0
0.2 0.9 0
0 0.9 0
0.05 0.9 0
0 0.95 0
0.05 0.95 0
0.05 0.9 0
0.1 0.9 0
0.05 0.95 0
0.1 0.95 0
0 0.95 0
0.05 0.95 0
0 1 0
0.05 1 0
0.05 0.95 0
0.1 0.95 0
0.05 1 0
0.1 1 0
0.1 0.9 0
0.15 0.9 0
0.1 0.95 0
0.15 0.95 0
0.15 0.9 0
0.2 0.9 0
0.15 0.95 0
0.2 0.95 0
0.1 0.95 0
0.15 0.95 0
0.1 1 0
0.15 1 0
0.15 0.95 0
0.2 0.95 0
0.15 1 0
0.2 1 0
0.2 0.6 0
0.25 0.6 0
0.2 0.65 0
0.25 0.65 0
0.25 0.6 0
0.3 0.6 0
0.25 0.65 0
0.3 0.65 0
0.2 0.65 0
0.25 0.65 0
0.2 0.7 0
0.25 0.7 0
0.25 0.65 0
0.3 0.65 0
0.25 0.7 0
0.3 0.7 0
0.3 0.6 0
0.35 0.6 0
0.3 0.65 0
[...]
POINT_DATA 2752
VECTORS velocity double
0.769462 0.181643 0
0.720878 0.266862 0
0.672535 0.218516 0
0.630076 0.321031 0
0.720878 0.266862 0
0.654544 0.345509 0
0.630076 0.321031 0
0.572101 0.415644 0
0.672535 0.218516 0
0.630076 0.321031 0
0.559082 0.249999 0
0.523783 0.367298 0
0.630076 0.321031 0
0.572101 0.415644 0
0.523783 0.367298 0
0.475582 0.475546 0
0.654544 0.345509 0
0.572093 0.415648 0
0.572101 0.415644 0
0.500037 0.500021 0
0.572093 0.415648 0
0.475555 0.475551 0
0.500037 0.500021 0
0.415658 0.572085 0
0.572101 0.415644 0
0.500037 0.500021 0
0.475582 0.475546 0
0.415671 0.572084 0
0.500037 0.500021 0
0.415658 0.572085 0
0.415671 0.572084 0
0.345527 0.654532 0
0.559082 0.249999 0
0.523783 0.367298 0
0.431874 0.27533 0
0.404572 0.404519 0
0.523783 0.367298 0
0.475582 0.475546 0
0.404572 0.404519 0
0.367329 0.523736 0
0.431874 0.27533 0
0.404572 0.404519 0
0.293911 0.293907 0
0.275358 0.431764 0
0.404572 0.404519 0
0.367329 0.523736 0
0.275358 0.431764 0
0.250083 0.559015 0
0.475582 0.475546 0
0.415671 0.572084 0
0.367329 0.523736 0
0.321059 0.630052 0
0.415671 0.572084 0
0.345527 0.654532 0
0.321059 0.630052 0
0.266886 0.720858 0
0.367329 0.523736 0
0.321059 0.630052 0
0.250083 0.559015 0
0.218583 0.67251 0
0.321059 0.630052 0
0.266886 0.720858 0
0.218583 0.67251 0
0.181688 0.769434 0
0.587785 0 0
0.707107 0 0
0.580549 -0.126573 0
0.698407 -0.110629 0
0.707107 0 0
0.809017 0 0
0.698407 -0.110629 0
0.799067 -0.0919612 0
0.580549 -0.126573 0
0.698407 -0.110629 0
0.559025 -0.250026 0
0.672512 -0.218532 0
0.698407 -0.110629 0
0.799067 -0.0919612 0
0.672512 -0.218532 0
0.769439 -0.181656 0
0.809017 0 0
0.891007 0 0
0.799067 -0.0919612 0
0.880051 -0.0710289 0
0.891007 0 0
0.951057 0 0
0.880051 -0.0710289 0
0.939364 -0.0483477 0
0.799067 -0.0919612 0
0.880051 -0.0710289 0
0.769439 -0.181656 0
0.84742 -0.140307 0
0.880051 -0.0710289 0
0.939364 -0.0483477 0
0.84742 -0.140307 0
0.904534 -0.0955045 0
0.559025 -0.250026 0
0.672512 -0.218532 0
0.523736 -0.367318 0
0.630057 -0.321049 0
0.672512 -0.218532 0
0.769439 -0.181656 0
0.630057 -0.321049 0
0.720864 -0.266875 0
0.523736 -0.367318 0
0.630057 -0.321049 0
0.475548 -0.475563 0
0.572085 -0.415659 0
0.630057 -0.321049 0
0.720864 -0.266875 0
0.572085 -0.415659 0
0.654536 -0.34552 0
0.769439 -0.181656 0
0.84742 -0.140307 0
0.720864 -0.266875 0
0.793921 -0.206129 0
0.84742 -0.140307 0
0.904534 -0.0955045 0
0.793921 -0.206129 0
0.847429 -0.140309 0
0.720864 -0.266875 0
0.793921 -0.206129 0
0.654536 -0.34552 0
0.720871 -0.266873 0
0.793921 -0.206129 0
0.847429 -0.140309 0
0.720871 -0.266873 0
0.769457 -0.181659 0
0.475548 -0.475563 0
0.572085 -0.415659 0
0.415648 -0.572096 0
0.500024 -0.500032 0
0.572085 -0.415659 0
0.654536 -0.34552 0
0.500024 -0.500032 0
0.572091 -0.415657 0
0.415648 -0.572096 0
0.500024 -0.500032 0
0.345511 -0.65454 0
0.41565 -0.572091 0
0.500024 -0.500032 0
0.572091 -0.415657 0
0.41565 -0.572091 0
0.475557 -0.475558 0
0.654536 -0.34552 0
0.720871 -0.266873 0
0.572091 -0.415657 0
0.63007 -0.321043 0
0.720871 -0.266873 0
0.769457 -0.181659 0
0.63007 -0.321043 0
0.672537 -0.218537 0
0.572091 -0.415657 0
0.63007 -0.321043 0
0.475557 -0.475558 0
0.52376 -0.367314 0
0.63007 -0.321043 0
0.672537 -0.218537 0
0.52376 -0.367314 0
0.559063 -0.250025 0
0.345511 -0.65454 0
0.41565 -0.572091 0
0.266867 -0.720865 0
0.321045 -0.630061 0
0.41565 -0.572091 0
0.475557 -0.475558 0
0.321045 -0.630061 0
0.367322 -0.523745 0
0.266867 -0.720865 0
0.321045 -0.630061 0
0.181641 -0.76944 0
0.218533 -0.67252 0
0.321045 -0.630061 0
0.367322 -0.523745 0
0.218533 -0.67252 0
0.250043 -0.559034 0
0.475557 -0.475558 0
0.52376 -0.367314 0
0.367322 -0.523745 0
0.404559 -0.40453 0
0.52376 -0.367314 0
0.559063 -0.250025 0
0.404559 -0.40453 0
0.431852 -0.275339 0
0.367322 -0.523745 0
0.404559 -0.40453 0
0.250043 -0.559034 0
0.275372 -0.43178 0
0.404559 -0.40453 0
0.431852 -0.275339 0
0.275372 -0.43178 0
0.293938 -0.293902 0
0.181641 -0.76944 0
0.218533 -0.67252 0
0.0918549 -0.799039 0
0.110609 -0.69839 0
0.218533 -0.67252 0
0.250043 -0.559034 0
0.110609 -0.69839 0
0.126624 -0.580531 0
0.0918549 -0.799039 0
0.110609 -0.69839 0
-5.453e-05 -0.808983 0
-8.87824e-06 -0.70706 0
0.110609 -0.69839 0
0.126624 -0.580531 0
-8.87824e-06 -0.70706 0
2.53073e-05 -0.587748 0
0.951057 0 0
0.987688 0 0
0.939364 -0.0483477 0
0.975547 -0.0244757 0
0.987688 0 0
1 0 0
0.975547 -0.0244757 0
0.987707 -1.18846e-06 0
0.939364 -0.0483477 0
0.975547 -0.0244757 0
0.904534 -0.0955045 0
0.939376 -0.0483487 0
0.975547 -0.0244757 0
0.987707 -1.18846e-06 0
0.939376 -0.0483487 0
0.951086 -2.66153e-06 0
1 0 0
0.987688 0 0
0.987707 -1.18846e-06 0
0.975547 0.0244731 0
0.987688 0 0
0.951057 0 0
0.975547 0.0244731 0
0.939364 0.0483444 0
0.987707 -1.18846e-06 0
0.975547 0.0244731 0
0.951086 -2.66153e-06 0
0.939378 0.0483429 0
0.975547 0.0244731 0
0.939364 0.0483444 0
0.939378 0.0483429 0
0.904538 0.0954972 0
0.904534 -0.0955045 0
0.939376 -0.0483487 0
0.847429 -0.140309 0
0.880071 -0.071031 0
0.939376 -0.0483487 0
0.951086 -2.66153e-06 0
0.880071 -0.071031 0
0.891043 -4.295e-06 0
0.847429 -0.140309 0
0.880071 -0.071031 0
0.769457 -0.181659 0
0.799095 -0.0919645 0
0.880071 -0.071031 0
0.891043 -4.295e-06 0
0.799095 -0.0919645 0
0.809058 -5.04758e-06 0
0.951086 -2.66153e-06 0
0.939378 0.0483429 0
0.891043 -4.295e-06 0
0.880074 0.0710221 0
0.939378 0.0483429 0
0.904538 0.0954972 0
0.880074 0.0710221 0
0.847435 0.140297 0
0.891043 -4.295e-06 0
0.880074 0.0710221 0
0.809058 -5.04758e-06 0
0.799097 0.0919542 0
0.880074 0.0710221 0
0.847435 0.140297 0
0.799097 0.0919542 0
0.769462 0.181643 0
0.769457 -0.181659 0
0.799095 -0.0919645 0
0.672537 -0.218537 0
0.69844 -0.110631 0
0.799095 -0.0919645 0
0.809058 -5.04758e-06 0
0.69844 -0.110631 0
0.707144 -4.60481e-06 0
0.672537 -0.218537 0
0.69844 -0.110631 0
0.559063 -0.250025 0
0.580563 -0.126569 0
0.69844 -0.110631 0
0.707144 -4.60481e-06 0
0.580563 -0.126569 0
0.587792 1.93439e-06 0
0.809058 -5.04758e-06 0
0.799097 0.0919542 0
0.707144 -4.60481e-06 0
0.698438 0.110626 0
0.799097 0.0919542 0
0.769462 0.181643 0
0.698438 0.110626 0
0.672535 0.218516 0
0.707144 -4.60481e-06 0
0.698438 0.110626 0
0.587792 1.93439e-06 0
0.580563 0.126568 0
0.698438 0.110626 0
0.672535 0.218516 0
0.580563 0.126568 0
0.559082 0.249999 0
0.951057 0 0
0.891007 0 0
0.939364 0.0483444 0
0.880051 0.0710252 0
0.891007 0 0
0.809017 0 0
0.880051 0.0710252 0
0.799068 0.091957 0
0.939364 0.0483444 0
0.880051 0.0710252 0
0.904538 0.0954972 0
0.847424 0.1403 0
0.880051 0.0710252 0
0.799068 0.091957 0
0.847424 0.1403 0
0.769444 0.181648 0
0.809017 0 0
0.707107 0 0
0.799068 0.091957 0
0.69841 0.110624 0
0.707107 0 0
0.587785 0 0
0.69841 0.110624 0
0.580554 0.126568 0
0.799068 0.091957 0
0.69841 0.110624 0
0.769444 0.181648 0
0.672517 0.218523 0
0.69841 0.110624 0
0.580554 0.126568 0
0.672517 0.218523 0
0.55903 0.250016 0
0.904538 0.0954972 0
0.847424 0.1403 0
0.847435 0.140297 0
0.793928 0.206119 0
0.847424 0.1403 0
0.769444 0.181648 0
0.793928 0.206119 0
0.720871 0.266865 0
0.847435 0.140297 0
0.793928 0.206119 0
0.769462 0.181643 0
0.720878 0.266862 0
0.793928 0.206119 0
0.720871 0.266865 0
0.720878 0.266862 0
0.654544 0.345509 0
0.769444 0.181648 0
0.672517 0.218523 0
0.720871 0.266865 0
0.630063 0.321038 0
0.672517 0.218523 0
0.55903 0.250016 0
0.630063 0.321038 0
0.523741 0.367306 0
0.720871 0.266865 0
0.630063 0.321038 0
0.654544 0.345509 0
0.572093 0.415648 0
0.630063 0.321038 0
0.523741 0.367306 0
0.572093 0.415648 0
0.475555 0.475551 0
0.250083 0.559015 0
0.218583 0.67251 0
0.12666 0.580519 0
0.110676 0.698385 0
0.218583 0.67251 0
0.181688 0.769434 0
0.110676 0.698385 0
0.0919985 0.799043 0
0.12666 0.580519 0
0.110676 0.698385 0
2.83649e-05 0.587748 0
1.35447e-05 0.707046 0
0.110676 0.698385 0
0.0919985 0.799043 0
1.35447e-05 0.707046 0
1.22271e-05 0.808958 0
0 0 0
0.156434 0 0
0 -0.156434 0
0.1545 -0.154521 0
0.156434 0 0
0.309017 0 0
0.1545 -0.154521 0
0.305204 -0.148793 0
0 -0.156434 0
0.1545 -0.154521 0
0 -0.309017 0
0.148776 -0.305228 0
0.1545 -0.154521 0
0.305204 -0.148793 0
0.148776 -0.305228 0
0.293891 -0.293917 0
0.309017 0 0
0.45399 0 0
0.305204 -0.148793 0
0.448396 -0.1394 0
0.45399 0 0
0.587785 0 0
0.448396 -0.1394 0
0.580549 -0.126573 0
0.305204 -0.148793 0
0.448396 -0.1394 0
0.293891 -0.293917 0
0.431773 -0.275363 0
0.448396 -0.1394 0
0.580549 -0.126573 0
0.431773 -0.275363 0
0.559025 -0.250026 0
0 -0.309017 0
0.148776 -0.305228 0
0 -0.45399 0
0.139386 -0.44842 0
0.148776 -0.305228 0
0.293891 -0.293917 0
0.139386 -0.44842 0
0.275343 -0.4318 0
0 -0.45399 0
0.139386 -0.44842 0
0 -0.587785 0
0.126564 -0.580571 0
0.139386 -0.44842 0
0.275343 -0.4318 0
0.126564 -0.580571 0
0.250012 -0.55905 0
0.293891 -0.293917 0
0.431773 -0.275363 0
0.275343 -0.4318 0
0.40452 -0.404541 0
0.431773 -0.275363 0
0.559025 -0.250026 0
0.40452 -0.404541 0
0.523736 -0.367318 0
0.275343 -0.4318 0
0.40452 -0.404541 0
0.250012 -0.55905 0
0.367303 -0.523757 0
0.40452 -0.404541 0
0.523736 -0.367318 0
0.367303 -0.523757 0
0.475548 -0.475563 0
0 -0.587785 0
0.126564 -0.580571 0
0 -0.707107 0
0.110624 -0.698427 0
0.126564 -0.580571 0
0.250012 -0.55905 0
0.110624 -0.698427 0
0.218522 -0.672533 0
0 -0.707107 0
0.110624 -0.698427 0
0 -0.809017 0
0.0919597 -0.799086 0
0.110624 -0.698427 0
0.218522 -0.672533 0
0.0919597 -0.799086 0
0.18165 -0.769453 0
0.250012 -0.55905 0
0.367303 -0.523757 0
0.218522 -0.672533 0
0.321038 -0.630072 0
0.367303 -0.523757 0
0.475548 -0.475563 0
0.321038 -0.630072 0
0.415648 -0.572096 0
0.218522 -0.672533 0
0.321038 -0.630072 0
0.18165 -0.769453 0
0.266865 -0.720872 0
0.321038 -0.630072 0
0.415648 -0.572096 0
0.266865 -0.720872 0
0.345511 -0.65454 0
0 -0.809017 0
0.0919597 -0.799086 0
0 -0.891007 0
0.0710312 -0.88006 0
0.0919597 -0.799086 0
0.18165 -0.769453 0
0.0710312 -0.88006 0
0.140304 -0.847418 0
0 -0.891007 0
0.0710312 -0.88006 0
0 -0.951057 0
0.0483539 -0.939367 0
0.0710312 -0.88006 0
0.140304 -0.847418 0
0.0483539 -0.939367 0
0.0955009 -0.904521 0
0.18165 -0.769453 0
0.266865 -0.720872 0
0.140304 -0.847418 0
0.20612 -0.793916 0
0.266865 -0.720872 0
0.345511 -0.65454 0
0.20612 -0.793916 0
0.266867 -0.720865 0
0.140304 -0.847418 0
0.20612 -0.793916 0
0.0955009 -0.904521 0
0.1403 -0.847414 0
0.20612 -0.793916 0
0.266867 -0.720865 0
0.1403 -0.847414 0
0.181641 -0.76944 0
-0.904446 -0.0954832 0
-0.939305 -0.0483805 0
-0.939265 -0.0483245 0
-0.975496 -0.024481 0
-0.939305 -0.0483805 0
-0.951024 -4.40759e-07 0
-0.975496 -0.024481 0
-0.98766 2.31091e-06 0
-0.939265 -0.0483245 0
-0.975496 -0.024481 0
-0.951057 -3.78437e-17 0
-0.987688 -1.91577e-17 0
-0.975496 -0.024481 0
-0.98766 2.31091e-06 0
-0.987688 -1.91577e-17 0
-1 -3.46914e-32 0
0.587785 0 0
0.45399 0 0
0.580554 0.126568 0
0.448404 0.139394 0
0.45399 0 0
0.309017 0 0
0.448404 0.139394 0
0.305212 0.148789 0
0.580554 0.126568 0
0.448404 0.139394 0
0.55903 0.250016 0
0.431779 0.275353 0
0.448404 0.139394 0
0.305212 0.148789 0
0.431779 0.275353 0
0.293896 0.29391 0
0.309017 0 0
0.156434 0 0
0.305212 0.148789 0
0.154506 0.15452 0
0.156434 0 0
1.22465e-16 0 0
0.154506 0.15452 0
1.20957e-16 0.156434 0
0.305212 0.148789 0
0.154506 0.15452 0
0.293896 0.29391 0
0.148779 0.305228 0
0.154506 0.15452 0
1.20957e-16 0.156434 0
0.148779 0.305228 0
1.16471e-16 0.309017 0
0.55903 0.250016 0
0.431779 0.275353 0
0.523741 0.367306 0
0.404523 0.404529 0
0.431779 0.275353 0
0.293896 0.29391 0
0.404523 0.404529 0
0.275345 0.431791 0
0.523741 0.367306 0
0.404523 0.404529 0
0.475555 0.475551 0
0.367306 0.523744 0
0.404523 0.404529 0
0.275345 0.431791 0
0.367306 0.523744 0
0.250013 0.559039 0
0.293896 0.29391 0
0.148779 0.305228 0
0.275345 0.431791 0
0.139388 0.448418 0
0.148779 0.305228 0
1.16471e-16 0.309017 0
0.139388 0.448418 0
1.09117e-16 0.45399 0
0.275345 0.431791 0
0.139388 0.448418 0
0.250013 0.559039 0
0.126564 0.580566 0
0.139388 0.448418 0
1.09117e-16 0.45399 0
0.126564 0.580566 0
9.9076e-17 0.587785 0
0.475555 0.475551 0
0.367306 0.523744 0
0.415658 0.572085 0
0.321044 0.630061 0
0.367306 0.523744 0
0.250013 0.559039 0
0.321044 0.630061 0
0.218524 0.672522 0
0.415658 0.572085 0
0.321044 0.630061 0
0.345527 0.654532 0
0.266876 0.720864 0
0.321044 0.630061 0
0.218524 0.672522 0
0.266876 0.720864 0
0.181654 0.769445 0
0.250013 0.559039 0
0.126564 0.580566 0
0.218524 0.672522 0
0.110624 0.698418 0
0.126564 0.580566 0
9.9076e-17 0.587785 0
0.110624 0.698418 0
8.65956e-17 0.707107 0
0.218524 0.672522 0
0.110624 0.698418 0
0.181654 0.769445 0
0.0919591 0.799074 0
0.110624 0.698418 0
8.65956e-17 0.707107 0
0.0919591 0.799074 0
7.19829e-17 0.809017 0
0.345527 0.654532 0
0.266876 0.720864 0
0.266886 0.720858 0
0.206138 0.793914 0
0.266876 0.720864 0
0.181654 0.769445 0
0.206138 0.793914 0
0.140311 0.84742 0
0.266886 0.720858 0
0.206138 0.793914 0
0.181688 0.769434 0
0.140327 0.847411 0
0.206138 0.793914 0
0.140311 0.84742 0
0.140327 0.847411 0
0.0955155 0.904526 0
0.181654 0.769445 0
0.0919591 0.799074 0
0.140311 0.84742 0
0.0710304 0.880053 0
0.0919591 0.799074 0
7.19829e-17 0.809017 0
0.0710304 0.880053 0
5.55978e-17 0.891007 0
0.140311 0.84742 0
0.0710304 0.880053 0
0.0955155 0.904526 0
0.0483542 0.939362 0
0.0710304 0.880053 0
5.55978e-17 0.891007 0
0.0483542 0.939362 0
3.78437e-17 0.951057 0
0.181688 0.769434 0
0.140327 0.847411 0
0.0919985 0.799043 0
0.0710555 0.880028 0
0.140327 0.847411 0
0.0955155 0.904526 0
0.0710555 0.880028 0
0.0483547 0.939348 0
0.0919985 0.799043 0
0.0710555 0.880028 0
1.22271e-05 0.808958 0
2.90952e-05 0.890943 0
0.0710555 0.880028 0
0.0483547 0.939348 0
2.90952e-05 0.890943 0
5.92997e-05 0.951024 0
0.0955155 0.904526 0
0.0483542 0.939362 0
0.0483547 0.939348 0
0.0244843 0.975533 0
0.0483542 0.939362 0
3.78437e-17 0.951057 0
0.0244843 0.975533 0
1.91577e-17 0.987688 0
0.0483547 0.939348 0
0.0244843 0.975533 0
5.92997e-05 0.951024 0
3.91137e-05 0.987683 0
0.0244843 0.975533 0
1.91577e-17 0.987688 0
3.91137e-05 0.987683 0
7.4988e-33 1 0
5.92997e-05 0.951024 0
3.91137e-05 0.987683 0
-0.0482825 0.93928 0
-0.0244372 0.975468 0
3.91137e-05 0.987683 0
7.4988e-33 1 0
-0.0244372 0.975468 0
-1.91577e-17 0.987688 0
-0.0482825 0.93928 0
-0.0244372 0.975468 0
-0.0954576 0.904401 0
-0.0483103 0.939171 0
-0.0244372 0.975468 0
-1.91577e-17 0.987688 0
-0.0483103 0.939171 0
-3.78437e-17 0.951057 0
0.293938 -0.293902 0
0.305227 -0.14879 0
0.148756 -0.305208 0
0.154517 -0.154503 0
0.305227 -0.14879 0
0.309021 -1.68631e-06 0
0.154517 -0.154503 0
0.156453 3.079e-06 0
0.148756 -0.305208 0
0.154517 -0.154503 0
-1.15351e-05 -0.309014 0
5.67909e-06 -0.156433 0
0.154517 -0.154503 0
0.156453 3.079e-06 0
5.67909e-06 -0.156433 0
1.92886e-05 6.03505e-06 0
0.309021 -1.68631e-06 0
0.305218 0.14879 0
0.156453 3.079e-06 0
0.154521 0.154513 0
0.305218 0.14879 0
0.293911 0.293907 0
0.154521 0.154513 0
0.148776 0.305212 0
0.156453 3.079e-06 0
0.154521 0.154513 0
1.92886e-05 6.03505e-06 0
1.53831e-05 0.156442 0
0.154521 0.154513 0
0.148776 0.305212 0
1.53831e-05 0.156442 0
3.82134e-06 0.309018 0
-1.15351e-05 -0.309014 0
5.67909e-06 -0.156433 0
-0.148784 -0.305215 0
-0.154496 -0.154507 0
5.67909e-06 -0.156433 0
1.92886e-05 6.03505e-06 0
-0.154496 -0.154507 0
-0.156416 7.4117e-06 0
-0.148784 -0.305215 0
-0.154496 -0.154507 0
-0.293885 -0.293917 0
-0.305201 -0.14877 0
-0.154496 -0.154507 0
-0.156416 7.4117e-06 0
-0.305201 -0.14877 0
-0.309004 9.70338e-06 0
1.92886e-05 6.03505e-06 0
1.53831e-05 0.156442 0
-0.156416 7.4117e-06 0
-0.15449 0.154519 0
1.53831e-05 0.156442 0
3.82134e-06 0.309018 0
-0.15449 0.154519 0
-0.148769 0.305221 0
-0.156416 7.4117e-06 0
-0.15449 0.154519 0
-0.309004 9.70338e-06 0
-0.305198 0.14879 0
-0.15449 0.154519 0
-0.148769 0.305221 0
-0.305198 0.14879 0
-0.293878 0.293919 0
0 -0.951057 0
-0.0483277 -0.939515 0
0 -0.891007 0
-0.0710046 -0.880108 0
-0.0483277 -0.939515 0
-0.0954871 -0.904667 0
-0.0710046 -0.880108 0
-0.140287 -0.84748 0
0 -0.891007 0
-0.0710046 -0.880108 0
0 -0.809017 0
-0.0919452 -0.799078 0
-0.0710046 -0.880108 0
-0.140287 -0.84748 0
-0.0919452 -0.799078 0
-0.181637 -0.769453 0
-0.0954871 -0.904667 0
-0.140283 -0.847546 0
-0.140287 -0.84748 0
-0.206109 -0.793972 0
-0.140283 -0.847546 0
-0.181625 -0.769555 0
-0.206109 -0.793972 0
-0.26685 -0.720914 0
-0.140287 -0.84748 0
-0.206109 -0.793972 0
-0.181637 -0.769453 0
-0.266856 -0.720877 0
-0.206109 -0.793972 0
-0.26685 -0.720914 0
-0.266856 -0.720877 0
-0.3455 -0.654549 0
0 -0.809017 0
-0.0919452 -0.799078 0
0 -0.707107 0
-0.110617 -0.698398 0
-0.0919452 -0.799078 0
-0.181637 -0.769453 0
-0.110617 -0.698398 0
-0.218517 -0.672505 0
0 -0.707107 0
-0.110617 -0.698398 0
0 -0.587785 0
-0.126563 -0.580528 0
-0.110617 -0.698398 0
-0.218517 -0.672505 0
-0.126563 -0.580528 0
-0.250014 -0.559006 0
-0.181637 -0.769453 0
-0.266856 -0.720877 0
-0.218517 -0.672505 0
-0.321036 -0.630051 0
-0.266856 -0.720877 0
-0.3455 -0.654549 0
-0.321036 -0.630051 0
-0.41565 -0.572082 0
-0.218517 -0.672505 0
-0.321036 -0.630051 0
-0.250014 -0.559006 0
-0.367307 -0.523719 0
-0.321036 -0.630051 0
-0.41565 -0.572082 0
-0.367307 -0.523719 0
-0.47558 -0.475507 0
0 -0.587785 0
-0.126563 -0.580528 0
0 -0.45399 0
-0.139403 -0.448368 0
-0.126563 -0.580528 0
-0.250014 -0.559006 0
-0.139403 -0.448368 0
-0.275388 -0.431753 0
0 -0.45399 0
-0.139403 -0.448368 0
0 -0.309017 0
-0.148796 -0.30517 0
-0.139403 -0.448368 0
-0.275388 -0.431753 0
-0.148796 -0.30517 0
-0.293944 -0.293859 0
-0.250014 -0.559006 0
-0.367307 -0.523719 0
-0.275388 -0.431753 0
-0.404607 -0.404515 0
-0.367307 -0.523719 0
-0.47558 -0.475507 0
-0.404607 -0.404515 0
-0.523894 -0.367296 0
-0.275388 -0.431753 0
-0.404607 -0.404515 0
-0.293944 -0.293859 0
-0.431886 -0.275334 0
-0.404607 -0.404515 0
-0.523894 -0.367296 0
-0.431886 -0.275334 0
-0.559225 -0.250034 0
0 -0.309017 0
-0.148796 -0.30517 0
0 -0.156434 0
-0.15452 -0.154477 0
-0.148796 -0.30517 0
-0.293944 -0.293859 0
-0.15452 -0.154477 0
-0.305234 -0.148746 0
0 -0.156434 0
-0.15452 -0.154477 0
0 -1.22465e-16 0
-0.156434 -1.20957e-16 0
-0.15452 -0.154477 0
-0.305234 -0.148746 0
-0.156434 -1.20957e-16 0
-0.309017 -1.16471e-16 0
-0.293944 -0.293859 0
-0.431886 -0.275334 0
-0.305234 -0.148746 0
-0.44848 -0.139359 0
-0.431886 -0.275334 0
-0.559225 -0.250034 0
-0.44848 -0.139359 0
-0.580794 -0.12658 0
-0.305234 -0.148746 0
-0.44848 -0.139359 0
-0.309017 -1.16471e-16 0
-0.45399 -1.09117e-16 0
-0.44848 -0.139359 0
-0.580794 -0.12658 0
-0.45399 -1.09117e-16 0
-0.587785 -9.9076e-17 0
-0.181625 -0.769555 0
-0.218494 -0.672602 0
-0.26685 -0.720914 0
-0.321013 -0.630078 0
-0.218494 -0.672602 0
-0.249986 -0.559095 0
-0.321013 -0.630078 0
-0.367279 -0.523743 0
-0.26685 -0.720914 0
-0.321013 -0.630078 0
-0.3455 -0.654549 0
-0.415623 -0.572052 0
-0.321013 -0.630078 0
-0.367279 -0.523743 0
-0.415623 -0.572052 0
-0.475522 -0.475505 0
-0.249986 -0.559095 0
-0.275328 -0.431831 0
-0.367279 -0.523743 0
-0.4045 -0.404521 0
-0.275328 -0.431831 0
-0.293885 -0.293917 0
-0.4045 -0.404521 0
-0.431761 -0.275342 0
-0.367279 -0.523743 0
-0.4045 -0.404521 0
-0.475522 -0.475505 0
-0.523714 -0.367263 0
-0.4045 -0.404521 0
-0.431761 -0.275342 0
-0.523714 -0.367263 0
-0.559011 -0.249979 0
-0.3455 -0.654549 0
-0.415623 -0.572052 0
-0.41565 -0.572082 0
-0.500001 -0.499927 0
-0.415623 -0.572052 0
-0.475522 -0.475505 0
-0.500001 -0.499927 0
-0.572059 -0.415553 0
-0.41565 -0.572082 0
-0.500001 -0.499927 0
-0.47558 -0.475507 0
-0.572074 -0.415448 0
-0.500001 -0.499927 0
-0.572059 -0.415553 0
-0.572074 -0.415448 0
-0.654513 -0.345335 0
-0.475522 -0.475505 0
-0.523714 -0.367263 0
-0.572059 -0.415553 0
-0.63003 -0.320954 0
-0.523714 -0.367263 0
-0.559011 -0.249979 0
-0.63003 -0.320954 0
-0.672491 -0.218454 0
-0.572059 -0.415553 0
-0.63003 -0.320954 0
-0.654513 -0.345335 0
-0.720837 -0.266715 0
-0.63003 -0.320954 0
-0.672491 -0.218454 0
-0.720837 -0.266715 0
-0.769413 -0.181533 0
-0.293885 -0.293917 0
-0.305201 -0.14877 0
-0.431761 -0.275342 0
-0.448396 -0.13937 0
-0.305201 -0.14877 0
-0.309004 9.70338e-06 0
-0.448396 -0.13937 0
-0.453983 1.37453e-05 0
-0.431761 -0.275342 0
-0.448396 -0.13937 0
-0.559011 -0.249979 0
-0.580546 -0.126535 0
-0.448396 -0.13937 0