# vtk DataFile Version 3.0
#This file was generated by the deal.II library on 2026/6/5 at 21:07:10
ASCII
DATASET UNSTRUCTURED_GRID

POINTS 448 double
0.2 0 0
0.3 0 0
0.2 0.1 0
0.3 0.1 0
0.3 0 0
0.4 0 0
0.3 0.1 0
0.4 0.1 0
0.2 0.1 0
0.3 0.1 0
0.2 0.2 0
0.3 0.2 0
0.3 0.1 0
0.4 0.1 0
0.3 0.2 0
0.4 0.2 0
0.2 0.2 0
0.3 0.2 0
0.2 0.3 0
0.3 0.3 0
0.3 0.2 0
0.4 0.2 0
0.3 0.3 0
0.4 0.3 0
0.2 0.3 0
0.3 0.3 0
0.2 0.4 0
0.3 0.4 0
0.3 0.3 0
0.4 0.3 0
0.3 0.4 0
0.4 0.4 0
0.2 0.4 0
0.3 0.4 0
0.2 0.5 0
0.3 0.5 0
0.3 0.4 0
0.4 0.4 0
0.3 0.5 0
0.4 0.5 0
0.2 0.5 0
0.3 0.5 0
0.2 0.6 0
0.3 0.6 0
0.3 0.5 0
0.4 0.5 0
0.3 0.6 0
0.4 0.6 0
0.4 0 0
0.5 0 0
0.4 0.1 0
0.5 0.1 0
0.5 0 0
0.6 0 0
0.5 0.1 0
0.6 0.1 0
0.4 0.1 0
0.5 0.1 0
0.4 0.2 0
0.5 0.2 0
0.5 0.1 0
0.6 0.1 0
0.5 0.2 0
0.6 0.2 0
0.4 0.2 0
0.5 0.2 0
0.4 0.3 0
0.5 0.3 0
0.5 0.2 0
0.6 0.2 0
0.5 0.3 0
0.6 0.3 0
0.4 0.3 0
0.5 0.3 0
0.4 0.4 0
0.5 0.4 0
0.5 0.3 0
0.6 0.3 0
0.5 0.4 0
0.6 0.4 0
0.4 0.4 0
0.5 0.4 0
0.4 0.5 0
0.5 0.5 0
0.5 0.4 0
0.6 0.4 0
0.5 0.5 0
0.6 0.5 0
0.4 0.5 0
0.5 0.5 0
0.4 0.6 0
0.5 0.6 0
0.5 0.5 0
0.6 0.5 0
0.5 0.6 0
0.6 0.6 0
0.6 0 0
0.7 0 0
0.6 0.1 0
0.7 0.1 0
0.7 0 0
0.8 0 0
0.7 0.1 0
0.8 0.1 0
0.6 0.1 0
0.7 0.1 0
0.6 0.2 0
0.7 0.2 0
0.7 0.1 0
0.8 0.1 0
0.7 0.2 0
0.8 0.2 0
0.6 0.4 0
0.7 0.4 0
0.6 0.5 0
0.7 0.5 0
0.7 0.4 0
0.8 0.4 0
0.7 0.5 0
0.8 0.5 0
0.6 0.5 0
0.7 0.5 0
0.6 0.6 0
0.7 0.6 0
0.7 0.5 0
0.8 0.5 0
0.7 0.6 0
0.8 0.6 0
0 0 0
0.1 0 0
0 0.1 0
0.1 0.1 0
0.1 0 0
0.2 0 0
0.1 0.1 0
0.2 0.1 0
0 0.1 0
0.1 0.1 0
0 0.2 0
0.1 0.2 0
0.1 0.1 0
0.2 0.1 0
0.1 0.2 0
0.2 0.2 0
0 0.2 0
0.1 0.2 0
0 0.3 0
0.1 0.3 0
0.1 0.2 0
0.2 0.2 0
0.1 0.3 0
0.2 0.3 0
0 0.3 0
0.1 0.3 0
0 0.4 0
0.1 0.4 0
0.1 0.3 0
0.2 0.3 0
0.1 0.4 0
0.2 0.4 0
0 0.4 0
0.1 0.4 0
0 0.5 0
0.1 0.5 0
0.1 0.4 0
0.2 0.4 0
0.1 0.5 0
0.2 0.5 0
0 0.5 0
0.1 0.5 0
0 0.6 0
0.1 0.6 0
0.1 0.5 0
0.2 0.5 0
0.1 0.6 0
0.2 0.6 0
0 0.6 0
0.1 0.6 0
0 0.7 0
0.1 0.7 0
0.1 0.6 0
0.2 0.6 0
0.1 0.7 0
0.2 0.7 0
0 0.7 0
0.1 0.7 0
0 0.8 0
0.1 0.8 0
0.1 0.7 0
0.2 0.7 0
0.1 0.8 0
0.2 0.8 0
0 0.8 0
0.1 0.8 0
0 0.9 0
0.1 0.9 0
0.1 0.8 0
0.2 0.8 0
0.1 0.9 0
0.2 0.9 0
0 0.9 0
0.1 0.9 0
0 1 0
0.1 1 0
0.1 0.9 0
0.2 0.9 0
0.1 1 0
0.2 1 0
0.2 0.6 0
0.3 0.6 0
0.2 0.7 0
0.3 0.7 0
0.3 0.6 0
0.4 0.6 0
0.3 0.7 0
0.4 0.7 0
0.2 0.7 0
0.3 0.7 0
0.2 0.8 0
0.3 0.8 0
0.3 0.7 0
0.4 0.7 0
0.3 0.8 0
0.4 0.8 0
0.2 0.8 0
0.3 0.8 0
0.2 0.9 0
0.3 0.9 0
0.3 0.8 0
0.4 0.8 0
0.3 0.9 0
0.4 0.9 0
0.2 0.9 0
0.3 0.9 0
0.2 1 0
0.3 1 0
0.3 0.9 0
0.4 0.9 0
0.3 1 0
0.4 1 0
0.4 0.6 0
0.5 0.6 0
0.4 0.7 0
0.5 0.7 0
0.5 0.6 0
0.6 0.6 0
0.5 0.7 0
0.6 0.7 0
0.4 0.7 0
0.5 0.7 0
0.4 0.8 0
0.5 0.8 0
0.5 0.7 0
0.6 0.7 0
0.5 0.8 0
0.6 0.8 0
0.4 0.8 0
0.5 0.8 0
0.4 0.9 0
0.5 0.9 0
0.5 0.8 0
0.6 0.8 0
0.5 0.9 0
0.6 0.9 0
0.4 0.9 0
0.5 0.9 0
0.4 1 0
0.5 1 0
0.5 0.9 0
0.6 0.9 0
0.5 1 0
0.6 1 0
0.6 0.6 0
0.7 0.6 0
0.6 0.7 0
0.7 0.7 0
0.7 0.6 0
0.8 0.6 0
0.7 0.7 0
0.8 0.7 0
0.6 0.7 0
0.7 0.7 0
0.6 0.8 0
0.7 0.8 0
0.7 0.7 0
0.8 0.7 0
0.7 0.8 0
0.8 0.8 0
0.6 0.8 0
0.7 0.8 0
0.6 0.9 0
0.7 0.9 0
0.7 0.8 0
0.8 0.8 0
0.7 0.9 0
0.8 0.9 0
0.6 0.9 0
0.7 0.9 0
0.6 1 0
0.7 1 0
0.7 0.9 0
0.8 0.9 0
0.7 1 0
0.8 1 0
0.8 0 0
0.9 0 0
0.8 0.1 0
0.9 0.1 0
0.9 0 0
1 0 0
0.9 0.1 0
1 0.1 0
0.8 0.1 0
0.9 0.1 0
0.8 0.2 0
0.9 0.2 0
0.9 0.1 0
1 0.1 0
0.9 0.2 0
1 0.2 0
0.8 0.2 0
0.9 0.2 0
0.8 0.3 0
0.9 0.3 0
0.9 0.2 0
1 0.2 0
0.9 0.3 0
1 0.3 0
0.8 0.3 0
0.9 0.3 0
0.8 0.4 0
0.9 0.4 0
0.9 0.3 0
1 0.3 0
0.9 0.4 0
1 0.4 0
0.8 0.4 0
0.9 0.4 0
0.8 0.5 0
0.9 0.5 0
0.9 0.4 0
1 0.4 0
0.9 0.5 0
1 0.5 0
0.8 0.5 0
0.9 0.5 0
0.8 0.6 0
0.9 0.6 0
0.9 0.5 0
1 0.5 0
0.9 0.6 0
1 0.6 0
0.8 0.6 0
0.9 0.6 0
0.8 0.7 0
0.9 0.7 0
0.9 0.6 0
1 0.6 0
0.9 0.7 0
1 0.7 0
0.8 0.7 0
0.9 0.7 0
0.8 0.8 0
0.9 0.8 0
0.9 0.7 0
1 0.7 0
0.9 0.8 0
1 0.8 0
0.8 0.8 0
0.9 0.8 0
0.8 0.9 0
0.9 0.9 0
0.9 0.8 0
1 0.8 0
0.9 0.9 0
1 0.9 0
0.8 0.9 0
0.9 0.9 0
0.8 1 0
0.9 1 0
0.9 0.9 0
1 0.9 0
0.9 1 0
1 1 0
0.6 0.2 0
0.65 0.2 0
0.6 0.25 0
0.65 0.25 0
0.65 0.2 0
0.7 0.2 0
0.65 0.25 0
0.7 0.25 0
0.6 0.25 0
0.65 0.25 0
0.6 0.3 0
0.65 0.3 0
0.65 0.25 0
0.7 0.25 0
0.65 0.3 0
0.7 0.3 0
0.7 0.2 0
0.75 0.2 0
0.7 0.25 0
0.75 0.25 0
0.75 0.2 0
0.8 0.2 0
0.75 0.25 0
0.8 0.25 0
0.7 0.25 0
0.75 0.25 0
0.7 0.3 0
0.75 0.3 0
0.75 0.25 0
0.8 0.25 0
0.75 0.3 0
0.8 0.3 0
0.6 0.3 0
0.65 0.3 0
0.6 0.35 0
0.65 0.35 0
0.65 0.3 0
0.7 0.3 0
0.65 0.35 0
0.7 0.35 0
0.6 0.35 0
0.65 0.35 0
0.6 0.4 0
0.65 0.4 0
0.65 0.35 0
0.7 0.35 0
0.65 0.4 0
0.7 0.4 0
0.7 0.3 0
0.75 0.3 0
0.7 0.35 0
0.75 0.35 0
0.75 0.3 0
0.8 0.3 0
0.75 0.35 0
0.8 0.35 0
0.7 0.35 0
0.75 0.35 0
0.7 0.4 0
0.75 0.4 0
0.75 0.35 0
0.8 0.35 0
0.75 0.4 0
0.8 0.4 0

CELLS 112 560
4	0	1	3	2
4	4	5	7	6
4	8	9	11	10
4	12	13	15	14
4	16	17	19	18
4	20	21	23	22
4	24	25	27	26
4	28	29	31	30
4	32	33	35	34
4	36	37	39	38
4	40	41	43	42
4	44	45	47	46
4	48	49	51	50
4	52	53	55	54
4	56	57	59	58
4	60	61	63	62
4	64	65	67	66
4	68	69	71	70
4	72	73	75	74
4	76	77	79	78
4	80	81	83	82
4	84	85	87	86
4	88	89	91	90
4	92	93	95	94
4	96	97	99	98
4	100	101	103	102
4	104	105	107	106
4	108	109	111	110
4	112	113	115	114
4	116	117	119	118
4	120	121	123	122
4	124	125	127	126
4	128	129	131	130
4	132	133	135	134
4	136	137	139	138
4	140	141	143	142
4	144	145	147	146
4	148	149	151	150
4	152	153	155	154
4	156	157	159	158
4	160	161	163	162
4	164	165	167	166
4	168	169	171	170
4	172	173	175	174
4	176	177	179	178
4	180	181	183	182
4	184	185	187	186
4	188	189	191	190
4	192	193	195	194
4	196	197	199	198
4	200	201	203	202
4	204	205	207	206
4	208	209	211	210
4	212	213	215	214
4	216	217	219	218
4	220	221	223	222
4	224	225	227	226
4	228	229	231	230
4	232	233	235	234
4	236	237	239	238
4	240	241	243	242
4	244	245	247	246
4	248	249	251	250
4	252	253	255	254
4	256	257	259	258
4	260	261	263	262
4	264	265	267	266
4	268	269	271	270
4	272	273	275	274
4	276	277	279	278
4	280	281	283	282
4	284	285	287	286
4	288	289	291	290
4	292	293	295	294
4	296	297	299	298
4	300	301	303	302
4	304	305	307	306
4	308	309	311	310
4	312	313	315	314
4	316	317	319	318
4	320	321	323	322
4	324	325	327	326
4	328	329	331	330
4	332	333	335	334
4	336	337	339	338
4	340	341	343	342
4	344	345	347	346
4	348	349	351	350
4	352	353	355	354
4	356	357	359	358
4	360	361	363	362
4	364	365	367	366
4	368	369	371	370
4	372	373	375	374
4	376	377	379	378
4	380	381	383	382
4	384	385	387	386
4	388	389	391	390
4	392	393	395	394
4	396	397	399	398
4	400	401	403	402
4	404	405	407	406
4	408	409	411	410
4	412	413	415	414
4	416	417	419	418
4	420	421	423	422
4	424	425	427	426
4	428	429	431	430
4	432	433	435	434
4	436	437	439	438
4	440	441	443	442
4	444	445	447	446

CELL_TYPES 112
 9 9 9 9 9 9 9 9 9 9 9 9 9 9 9 9 9 9 9 9 9 9 9 9 9 9 9 9 9 9 9 9 9 9 9 9 9 9 9 9 9 9 9 9 9 9 9 9 9 9 9 9 9 9 9 9 9 9 9 9 9 9 9 9 9 9 9 9 9 9 9 9 9 9 9 9 9 9 9 9 9 9 9 9 9 9 9 9 9 9 9 9 9 9 9 9 9 9 9 9 9 9 9 9 9 9 9 9 9 9 9 9
POINT_DATA 448
VECTORS velocity double
0.587785 0 0
0.809017 0 0
0.558923 -0.25025 0
0.769448 -0.181817 0
0.809017 0 0
0.951057 0 0
0.769448 -0.181817 0
0.904656 -0.0955599 0
0.558923 -0.25025 0
0.769448 -0.181817 0
0.475668 -0.475922 0
0.654733 -0.345781 0
0.769448 -0.181817 0
0.904656 -0.0955599 0
0.654733 -0.345781 0
0.769711 -0.181749 0
0.475668 -0.475922 0
0.654733 -0.345781 0
0.345715 -0.654923 0
0.475809 -0.475844 0
0.654733 -0.345781 0
0.769711 -0.181749 0
0.475809 -0.475844 0
0.559332 -0.250196 0
0.345715 -0.654923 0
0.475809 -0.475844 0
0.181865 -0.769763 0
0.250299 -0.559302 0
0.475809 -0.475844 0
0.559332 -0.250196 0
0.250299 -0.559302 0
0.294233 -0.294078 0
0.181865 -0.769763 0
0.250299 -0.559302 0
0.000200276 -0.809234 0
0.0002755 -0.587987 0
0.250299 -0.559302 0
0.294233 -0.294078 0
0.0002755 -0.587987 0
0.000351155 -0.309131 0
0.000200276 -0.809234 0
0.0002755 -0.587987 0
-0.181515 -0.769496 0
-0.249837 -0.559118 0
0.0002755 -0.587987 0
0.000351155 -0.309131 0
-0.249837 -0.559118 0
-0.293689 -0.293955 0
0.951057 0 0
1 0 0
0.904656 -0.0955599 0
0.951312 -1.82559e-06 0
1 0 0
0.951057 0 0
0.951312 -1.82559e-06 0
0.904847 0.0956592 0
0.904656 -0.0955599 0
0.951312 -1.82559e-06 0
0.769711 -0.181749 0
0.809263 3.86657e-05 0
0.951312 -1.82559e-06 0
0.904847 0.0956592 0
0.809263 3.86657e-05 0
0.769375 0.182115 0
0.769711 -0.181749 0
0.809263 3.86657e-05 0
0.559332 -0.250196 0
0.587992 3.99975e-05 0
0.809263 3.86657e-05 0
0.769375 0.182115 0
0.587992 3.99975e-05 0
0.558972 0.250007 0
0.559332 -0.250196 0
0.587992 3.99975e-05 0
0.294233 -0.294078 0
0.309408 -3.37565e-05 0
0.587992 3.99975e-05 0
0.558972 0.250007 0
0.309408 -3.37565e-05 0
0.294232 0.293833 0
0.294233 -0.294078 0
0.309408 -3.37565e-05 0
0.000351155 -0.309131 0
0.000381209 -2.99364e-05 0
0.309408 -3.37565e-05 0
0.294232 0.293833 0
0.000381209 -2.99364e-05 0
0.00034703 0.309077 0
0.000351155 -0.309131 0
0.000381209 -2.99364e-05 0
-0.293689 -0.293955 0
-0.308792 1.31544e-05 0
0.000381209 -2.99364e-05 0
0.00034703 0.309077 0
-0.308792 1.31544e-05 0
-0.293693 0.294005 0
0.951057 0 0
0.809017 0 0
0.904847 0.0956592 0
0.769781 0.181966 0
0.809017 0 0
0.587785 0 0
0.769781 0.181966 0
0.559169 0.250277 0
0.904847 0.0956592 0
0.769781 0.181966 0
0.769375 0.182115 0
0.654326 0.346234 0
0.769781 0.181966 0
0.559169 0.250277 0
0.654326 0.346234 0
0.47645 0.475706 0
0.294232 0.293833 0
0.250431 0.559266 0
0.00034703 0.309077 0
0.000304694 0.588035 0
0.250431 0.559266 0
0.182139 0.769643 0
0.000304694 0.588035 0
0.000293593 0.80933 0
0.00034703 0.309077 0
0.000304694 0.588035 0
-0.293693 0.294005 0
-0.249831 0.559252 0
0.000304694 0.588035 0
0.000293593 0.80933 0
-0.249831 0.559252 0
-0.181444 0.769632 0
0 0 0
0.309017 0 0
0 -0.309017 0
0.293757 -0.294132 0
0.309017 0 0
0.587785 0 0
0.293757 -0.294132 0
0.558923 -0.25025 0
0 -0.309017 0
0.293757 -0.294132 0
0 -0.587785 0
0.250047 -0.559364 0
0.293757 -0.294132 0
0.558923 -0.25025 0
0.250047 -0.559364 0
0.475668 -0.475922 0
0 -0.587785 0
0.250047 -0.559364 0
0 -0.809017 0
0.181769 -0.769813 0
0.250047 -0.559364 0
0.475668 -0.475922 0
0.181769 -0.769813 0
0.345715 -0.654923 0
0 -0.809017 0
0.181769 -0.769813 0
0 -0.951057 0
0.095647 -0.904846 0
0.181769 -0.769813 0
0.345715 -0.654923 0
0.095647 -0.904846 0
0.181865 -0.769763 0
0 -0.951057 0
0.095647 -0.904846 0
0 -1 0
0.000137374 -0.951252 0
0.095647 -0.904846 0
0.181865 -0.769763 0
0.000137374 -0.951252 0
0.000200276 -0.809234 0
0 -1 0
0.000137374 -0.951252 0
0 -0.951057 0
-0.0954011 -0.90452 0
0.000137374 -0.951252 0
0.000200276 -0.809234 0
-0.0954011 -0.90452 0
-0.181515 -0.769496 0
0 -0.951057 0
-0.0954011 -0.90452 0
0 -0.809017 0
-0.181607 -0.769257 0
-0.0954011 -0.90452 0
-0.181515 -0.769496 0
-0.181607 -0.769257 0
-0.345468 -0.654451 0
0 -0.809017 0
-0.181607 -0.769257 0
0 -0.587785 0
-0.250028 -0.558736 0
-0.181607 -0.769257 0
-0.345468 -0.654451 0
-0.250028 -0.558736 0
-0.475588 -0.475381 0
0 -0.587785 0
-0.250028 -0.558736 0
0 -0.309017 0
-0.293963 -0.29365 0
-0.250028 -0.558736 0
-0.475588 -0.475381 0
-0.293963 -0.29365 0
-0.559097 -0.249852 0
0 -0.309017 0
-0.293963 -0.29365 0
0 -1.22465e-16 0
-0.309017 -1.16471e-16 0
-0.293963 -0.29365 0
-0.559097 -0.249852 0
-0.309017 -1.16471e-16 0
-0.587785 -9.9076e-17 0
-0.181515 -0.769496 0
-0.249837 -0.559118 0
-0.345468 -0.654451 0
-0.475497 -0.475527 0
-0.249837 -0.559118 0
-0.293689 -0.293955 0
-0.475497 -0.475527 0
-0.558975 -0.249997 0
-0.345468 -0.654451 0
-0.475497 -0.475527 0
-0.475588 -0.475381 0
-0.654585 -0.345419 0
-0.475497 -0.475527 0
-0.558975 -0.249997 0
-0.654585 -0.345419 0
-0.769494 -0.181588 0
-0.475588 -0.475381 0
-0.654585 -0.345419 0
-0.559097 -0.249852 0
-0.769541 -0.181555 0
-0.654585 -0.345419 0
-0.769494 -0.181588 0
-0.769541 -0.181555 0
-0.904637 -0.0954513 0
-0.559097 -0.249852 0
-0.769541 -0.181555 0
-0.587785 -9.9076e-17 0
-0.809017 -7.19829e-17 0
-0.769541 -0.181555 0
-0.904637 -0.0954513 0
-0.809017 -7.19829e-17 0
-0.951057 -3.78437e-17 0
-0.293689 -0.293955 0
-0.308792 1.31544e-05 0
-0.558975 -0.249997 0
-0.587738 4.70278e-05 0
-0.308792 1.31544e-05 0
-0.293693 0.294005 0
-0.587738 4.70278e-05 0
-0.558965 0.250122 0
-0.558975 -0.249997 0
-0.587738 4.70278e-05 0
-0.769494 -0.181588 0
-0.809064 5.58452e-05 0
-0.587738 4.70278e-05 0
-0.558965 0.250122 0
-0.809064 5.58452e-05 0
-0.769419 0.181708 0
-0.769494 -0.181588 0
-0.809064 5.58452e-05 0
-0.904637 -0.0954513 0
-0.951147 2.07632e-05 0
-0.809064 5.58452e-05 0
-0.769419 0.181708 0
-0.951147 2.07632e-05 0
-0.904526 0.0954978 0
-0.904637 -0.0954513 0
-0.951147 2.07632e-05 0
-0.951057 -3.78437e-17 0
-1 -3.46914e-32 0
-0.951147 2.07632e-05 0
-0.904526 0.0954978 0
-1 -3.46914e-32 0
-0.951057 3.78437e-17 0
-0.293693 0.294005 0
-0.249831 0.559252 0
-0.558965 0.250122 0
-0.475441 0.475694 0
-0.249831 0.559252 0
-0.181444 0.769632 0
-0.475441 0.475694 0
-0.345348 0.654586 0
-0.558965 0.250122 0
-0.475441 0.475694 0
-0.769419 0.181708 0
-0.654436 0.345541 0
-0.475441 0.475694 0
-0.345348 0.654586 0
-0.654436 0.345541 0
-0.475406 0.475489 0
-0.769419 0.181708 0
-0.654436 0.345541 0
-0.904526 0.0954978 0
-0.769369 0.181612 0
-0.654436 0.345541 0
-0.475406 0.475489 0
-0.769369 0.181612 0
-0.558948 0.249929 0
-0.904526 0.0954978 0
-0.769369 0.181612 0
-0.951057 3.78437e-17 0
-0.809017 7.19829e-17 0
-0.769369 0.181612 0
-0.558948 0.249929 0
-0.809017 7.19829e-17 0
-0.587785 9.9076e-17 0
0.587785 0 0
0.309017 0 0
0.559169 0.250277 0
0.293869 0.293897 0
0.309017 0 0
1.22465e-16 0 0
0.293869 0.293897 0
1.16471e-16 0.309017 0
0.559169 0.250277 0
0.293869 0.293897 0
0.47645 0.475706 0
0.250682 0.559228 0
0.293869 0.293897 0
1.16471e-16 0.309017 0
0.250682 0.559228 0
9.9076e-17 0.587785 0
0.47645 0.475706 0
0.250682 0.559228 0
0.346817 0.654382 0
0.182092 0.769596 0
0.250682 0.559228 0
9.9076e-17 0.587785 0
0.182092 0.769596 0
7.19829e-17 0.809017 0
0.346817 0.654382 0
0.182092 0.769596 0
0.182139 0.769643 0
0.0956512 0.904578 0
0.182092 0.769596 0
7.19829e-17 0.809017 0
0.0956512 0.904578 0
3.78437e-17 0.951057 0
0.182139 0.769643 0
0.0956512 0.904578 0
0.000293593 0.80933 0
0.000168554 0.951132 0
0.0956512 0.904578 0
3.78437e-17 0.951057 0
0.000168554 0.951132 0
7.4988e-33 1 0
0.000293593 0.80933 0
0.000168554 0.951132 0
-0.181444 0.769632 0
-0.0953569 0.904567 0
0.000168554 0.951132 0
7.4988e-33 1 0
-0.0953569 0.904567 0
-3.78437e-17 0.951057 0
-0.181444 0.769632 0
-0.0953569 0.904567 0
-0.345348 0.654586 0
-0.18152 0.769414 0
-0.0953569 0.904567 0
-3.78437e-17 0.951057 0
-0.18152 0.769414 0
-7.19829e-17 0.809017 0
-0.345348 0.654586 0
-0.18152 0.769414 0
-0.475406 0.475489 0
-0.249906 0.558942 0
-0.18152 0.769414 0
-7.19829e-17 0.809017 0
-0.249906 0.558942 0
-9.9076e-17 0.587785 0
-0.475406 0.475489 0
-0.249906 0.558942 0
-0.558948 0.249929 0
-0.293866 0.293809 0
-0.249906 0.558942 0
-9.9076e-17 0.587785 0
-0.293866 0.293809 0
-1.16471e-16 0.309017 0
-0.558948 0.249929 0
-0.293866 0.293809 0
-0.587785 9.9076e-17 0
-0.309017 1.16471e-16 0
-0.293866 0.293809 0
-1.16471e-16 0.309017 0
-0.309017 1.16471e-16 0
-1.22465e-16 1.22465e-16 0
0.769375 0.182115 0
0.720674 0.266281 0
0.672059 0.218746 0
0.629621 0.320662 0
0.720674 0.266281 0
0.654326 0.346234 0
0.629621 0.320662 0
0.571878 0.415684 0
0.672059 0.218746 0
0.629621 0.320662 0
0.558972 0.250007 0
0.5236 0.367259 0
0.629621 0.320662 0
0.571878 0.415684 0
0.5236 0.367259 0
0.475326 0.475178 0
0.654326 0.346234 0
0.572287 0.414339 0
0.571878 0.415684 0
0.499393 0.499412 0
0.572287 0.414339 0
0.47645 0.475706 0
0.499393 0.499412 0
0.414014 0.571921 0
0.571878 0.415684 0
0.499393 0.499412 0
0.475326 0.475178 0
0.416089 0.57184 0
0.499393 0.499412 0
0.414014 0.571921 0
0.416089 0.57184 0
0.346817 0.654382 0
0.558972 0.250007 0
0.5236 0.367259 0
0.431426 0.275294 0
0.404385 0.40427 0
0.5236 0.367259 0
0.475326 0.475178 0
0.404385 0.40427 0
0.367215 0.523616 0
0.431426 0.275294 0
0.404385 0.40427 0
0.294232 0.293833 0
0.275727 0.43131 0
0.404385 0.40427 0
0.367215 0.523616 0
0.275727 0.43131 0
0.250431 0.559266 0
0.475326 0.475178 0
0.416089 0.57184 0
0.367215 0.523616 0
0.320523 0.629334 0
0.416089 0.57184 0
0.346817 0.654382 0
0.320523 0.629334 0
0.266016 0.720983 0
0.367215 0.523616 0
0.320523 0.629334 0
0.250431 0.559266 0
0.219015 0.671894 0
0.320523 0.629334 0
0.266016 0.720983 0
0.219015 0.671894 0
0.182139 0.769643 0
VECTORS velocity_error double
0 0 0
0 0 0
9.42682e-05 0.000249836 0
-2.68585e-05 0.00018115 0
0 0 0
0 0 0
-2.68585e-05 0.00018115 0
-0.000147389 6.83643e-05 0
9.42682e-05 0.000249836 0
-2.68585e-05 0.00018115 0
-0.000140056 0.000393667 0
-0.000224699 0.000289239 0
-2.68585e-05 0.00018115 0
-0.000147389 6.83643e-05 0
-0.000224699 0.000289239 0
-0.000290502 0.000113399 0
-0.000140056 0.000393667 0
-0.000224699 0.000289239 0
-0.000223236 0.000414608 0
-0.000280342 0.000315729 0
-0.000224699 0.000289239 0
-0.000290502 0.000113399 0
-0.000280342 0.000315729 0
-0.000314793 0.000196143 0
-0.000223236 0.000414608 0
-0.000280342 0.000315729 0
-0.000229578 0.000341651 0
-0.000298643 0.000284571 0
-0.000280342 0.000315729 0
-0.000314793 0.000196143 0
-0.000298643 0.000284571 0
-0.000340812 0.000185551 0
-0.000229578 0.000341651 0
-0.000298643 0.000284571 0
-0.000200276 0.000216823 0
-0.0002755 0.000201708 0
-0.000298643 0.000284571 0
-0.000340812 0.000185551 0
-0.0002755 0.000201708 0
-0.000351155 0.000113961 0
-0.000200276 0.000216823 0
-0.0002755 0.000201708 0
-0.000120417 7.52125e-05 0
-0.000163206 0.000101124 0
-0.0002755 0.000201708 0
-0.000351155 0.000113961 0
-0.000163206 0.000101124 0
-0.000203399 6.26133e-05 0
0 0 0
0 0 0
-0.000147389 6.83643e-05 0
-0.000255073 1.82559e-06 0
0 0 0
0 0 0
-0.000255073 1.82559e-06 0
-0.000338339 -0.000167744 0
-0.000147389 6.83643e-05 0
-0.000255073 1.82559e-06 0
-0.000290502 0.000113399 0
-0.000245586 -3.86657e-05 0
-0.000255073 1.82559e-06 0
-0.000338339 -0.000167744 0
-0.000245586 -3.86657e-05 0
4.55603e-05 -0.000479769 0
-0.000290502 0.000113399 0
-0.000245586 -3.86657e-05 0
-0.000314793 0.000196143 0
-0.000206684 -3.99975e-05 0
-0.000245586 -3.86657e-05 0
4.55603e-05 -0.000479769 0
-0.000206684 -3.99975e-05 0
4.48828e-05 -6.77019e-06 0
-0.000314793 0.000196143 0
-0.000206684 -3.99975e-05 0
-0.000340812 0.000185551 0
-0.00039141 3.37565e-05 0
-0.000206684 -3.99975e-05 0
4.48828e-05 -6.77019e-06 0
-0.00039141 3.37565e-05 0
-0.00033985 5.9138e-05 0
-0.000340812 0.000185551 0
-0.00039141 3.37565e-05 0
-0.000351155 0.000113961 0
-0.000381209 2.99364e-05 0
-0.00039141 3.37565e-05 0
-0.00033985 5.9138e-05 0
-0.000381209 2.99364e-05 0
-0.00034703 -6.04684e-05 0
-0.000351155 0.000113961 0
-0.000381209 2.99364e-05 0
-0.000203399 6.26133e-05 0
-0.000224916 -1.31544e-05 0
-0.000381209 2.99364e-05 0
-0.00034703 -6.04684e-05 0
-0.000224916 -1.31544e-05 0
-0.000200033 -0.000112808 0
0 0 0
0 0 0
-0.000338339 -0.000167744 0
-0.000359753 -0.00033004 0
0 0 0
0 0 0
-0.000359753 -0.00033004 0
-0.000151836 -0.000276997 0
-0.000338339 -0.000167744 0
-0.000359753 -0.00033004 0
4.55603e-05 -0.000479769 0
0.000182344 -0.000742357 0
-0.000359753 -0.00033004 0
-0.000151836 -0.000276997 0
0.000182344 -0.000742357 0
-0.000921506 -0.000178019 0
-0.00033985 5.9138e-05 0
-0.000431383 -0.000249291 0
-0.00034703 -6.04684e-05 0
-0.000304694 -0.000249707 0
-0.000431383 -0.000249291 0
-0.000503559 -0.000222038 0
-0.000304694 -0.000249707 0
-0.000293593 -0.000312491 0
-0.00034703 -6.04684e-05 0
-0.000304694 -0.000249707 0
-0.000200033 -0.000112808 0
-0.000169381 -0.000234625 0
-0.000304694 -0.000249707 0
-0.000293593 -0.000312491 0
-0.000169381 -0.000234625 0
-0.000191633 -0.000210878 0
0 0 0
0 0 0
0 0 0
0.000135837 0.000239002 0
0 0 0
0 0 0
0.000135837 0.000239002 0
9.42682e-05 0.000249836 0
0 0 0
0.000135837 0.000239002 0
0 0 0
-4.72185e-05 0.00034722 0
0.000135837 0.000239002 0
9.42682e-05 0.000249836 0
-4.72185e-05 0.00034722 0
-0.000140056 0.000393667 0
0 0 0
-4.72185e-05 0.00034722 0
0 0 0
-0.000133476 0.000391618 0
-4.72185e-05 0.00034722 0
-0.000140056 0.000393667 0
-0.000133476 0.000391618 0
-0.000223236 0.000414608 0
0 0 0
-0.000133476 0.000391618 0
0 0 0
-0.000155516 0.000337245 0
-0.000133476 0.000391618 0
-0.000223236 0.000414608 0
-0.000155516 0.000337245 0
-0.000229578 0.000341651 0
0 0 0
-0.000155516 0.000337245 0
0 0 0
-0.000137374 0.000195261 0
-0.000155516 0.000337245 0
-0.000229578 0.000341651 0
-0.000137374 0.000195261 0
-0.000200276 0.000216823 0
0 0 0
-0.000137374 0.000195261 0
0 0 0
-9.04153e-05 1.16095e-05 0
-0.000137374 0.000195261 0
-0.000200276 0.000216823 0
-9.04153e-05 1.16095e-05 0
-0.000120417 7.52125e-05 0
0 0 0
-9.04153e-05 1.16095e-05 0
0 0 0
-2.88806e-05 -0.000164013 0
-9.04153e-05 1.16095e-05 0
-0.000120417 7.52125e-05 0
-2.88806e-05 -0.000164013 0
-2.32866e-05 -5.76175e-05 0
0 0 0
-2.88806e-05 -0.000164013 0
0 0 0
2.79879e-05 -0.000280635 0
-2.88806e-05 -0.000164013 0
-2.32866e-05 -5.76175e-05 0
2.79879e-05 -0.000280635 0
6.00019e-05 -0.000147629 0
0 0 0
2.79879e-05 -0.000280635 0
0 0 0
7.01477e-05 -0.00024265 0
2.79879e-05 -0.000280635 0
6.00019e-05 -0.000147629 0
7.01477e-05 -0.00024265 0
8.03719e-05 -0.000147849 0
0 0 0
7.01477e-05 -0.00024265 0
0 0 0
0 0 0
7.01477e-05 -0.00024265 0
8.03719e-05 -0.000147849 0
0 0 0
0 0 0
-0.000120417 7.52125e-05 0
-0.000163206 0.000101124 0
-2.32866e-05 -5.76175e-05 0
-3.1444e-05 -1.03261e-06 0
-0.000163206 0.000101124 0
-0.000203399 6.26133e-05 0
-3.1444e-05 -1.03261e-06 0
-4.16661e-05 -3.19969e-06 0
-2.32866e-05 -5.76175e-05 0
-3.1444e-05 -1.03261e-06 0
6.00019e-05 -0.000147629 0
7.6895e-05 -7.29008e-05 0
-3.1444e-05 -1.03261e-06 0
-4.16661e-05 -3.19969e-06 0
7.6895e-05 -7.29008e-05 0
7.29382e-05 -4.75681e-05 0
6.00019e-05 -0.000147629 0
7.6895e-05 -7.29008e-05 0
8.03719e-05 -0.000147849 0
0.000119759 -8.0957e-05 0
7.6895e-05 -7.29008e-05 0
7.29382e-05 -4.75681e-05 0
0.000119759 -8.0957e-05 0
0.000128777 -4.02165e-05 0
8.03719e-05 -0.000147849 0
0.000119759 -8.0957e-05 0
0 0 0
0 0 0
0.000119759 -8.0957e-05 0
0.000128777 -4.02165e-05 0
0 0 0
0 0 0
-0.000203399 6.26133e-05 0
-0.000224916 -1.31544e-05 0
-4.16661e-05 -3.19969e-06 0
-4.73968e-05 -4.70278e-05 0
-0.000224916 -1.31544e-05 0
-0.000200033 -0.000112808 0
-4.73968e-05 -4.70278e-05 0
-5.23645e-05 -0.000121554 0
-4.16661e-05 -3.19969e-06 0
-4.73968e-05 -4.70278e-05 0
7.29382e-05 -4.75681e-05 0
4.74031e-05 -5.58452e-05 0
-4.73968e-05 -4.70278e-05 0
-5.23645e-05 -0.000121554 0
4.74031e-05 -5.58452e-05 0
-1.89102e-06 -7.2534e-05 0
7.29382e-05 -4.75681e-05 0
4.74031e-05 -5.58452e-05 0
0.000128777 -4.02165e-05 0
9.0259e-05 -2.07632e-05 0
4.74031e-05 -5.58452e-05 0
-1.89102e-06 -7.2534e-05 0
9.0259e-05 -2.07632e-05 0
1.72577e-05 -6.28702e-06 0
0.000128777 -4.02165e-05 0
9.0259e-05 -2.07632e-05 0
0 0 0
0 0 0
9.0259e-05 -2.07632e-05 0
1.72577e-05 -6.28702e-06 0
0 0 0
0 0 0
-0.000200033 -0.000112808 0
-0.000169381 -0.000234625 0
-5.23645e-05 -0.000121554 0
-8.68639e-05 -0.00016581 0
-0.000169381 -0.000234625 0
-0.000191633 -0.000210878 0
-8.68639e-05 -0.00016581 0
-0.000143319 -7.78268e-05 0
-5.23645e-05 -0.000121554 0
-8.68639e-05 -0.00016581 0
-1.89102e-06 -7.2534e-05 0
-7.22743e-05 -4.97248e-05 0
-8.68639e-05 -0.00016581 0
-0.000143319 -7.78268e-05 0
-7.22743e-05 -4.97248e-05 0
-0.000122351 3.95961e-05 0
-1.89102e-06 -7.2534e-05 0
-7.22743e-05 -4.97248e-05 0
1.72577e-05 -6.28702e-06 0
-5.14998e-05 2.38446e-05 0
-7.22743e-05 -4.97248e-05 0
-0.000122351 3.95961e-05 0
-5.14998e-05 2.38446e-05 0
-6.91171e-05 7.10153e-05 0
1.72577e-05 -6.28702e-06 0
-5.14998e-05 2.38446e-05 0
0 0 0
0 0 0
-5.14998e-05 2.38446e-05 0
-6.91171e-05 7.10153e-05 0
0 0 0
0 0 0
0 0 0
0 0 0
-0.000151836 -0.000276997 0
2.32186e-05 -4.51755e-06 0
0 0 0
0 0 0
2.32186e-05 -4.51755e-06 0
0 0 0
-0.000151836 -0.000276997 0
2.32186e-05 -4.51755e-06 0
-0.000921506 -0.000178019 0
-0.000681966 -0.000210574 0
2.32186e-05 -4.51755e-06 0
0 0 0
-0.000681966 -0.000210574 0
0 0 0
-0.000921506 -0.000178019 0
-0.000681966 -0.000210574 0
-0.00132528 0.000126334 0
-0.00045665 -0.000174762 0
-0.000681966 -0.000210574 0
0 0 0
-0.00045665 -0.000174762 0
0 0 0
-0.00132528 0.000126334 0
-0.00045665 -0.000174762 0
-0.000503559 -0.000222038 0
-0.000159706 -6.94498e-05 0
-0.00045665 -0.000174762 0
0 0 0
-0.000159706 -6.94498e-05 0
0 0 0
-0.000503559 -0.000222038 0
-0.000159706 -6.94498e-05 0
-0.000293593 -0.000312491 0
-0.000168554 -7.58121e-05 0
-0.000159706 -6.94498e-05 0
0 0 0
-0.000168554 -7.58121e-05 0
0 0 0
-0.000293593 -0.000312491 0
-0.000168554 -7.58121e-05 0
-0.000191633 -0.000210878 0
-0.00013456 -5.85232e-05 0
-0.000168554 -7.58121e-05 0
0 0 0
-0.00013456 -5.85232e-05 0
0 0 0
-0.000191633 -0.000210878 0
-0.00013456 -5.85232e-05 0
-0.000143319 -7.78268e-05 0
-0.000115308 6.97842e-06 0
-0.00013456 -5.85232e-05 0
0 0 0
-0.000115308 6.97842e-06 0
0 0 0
-0.000143319 -7.78268e-05 0
-0.000115308 6.97842e-06 0
-0.000122351 3.95961e-05 0
-9.40333e-05 7.46029e-05 0
-0.000115308 6.97842e-06 0
0 0 0
-9.40333e-05 7.46029e-05 0
0 0 0
-0.000122351 3.95961e-05 0
-9.40333e-05 7.46029e-05 0
-6.91171e-05 7.10153e-05 0
-2.66614e-05 8.3265e-05 0
-9.40333e-05 7.46029e-05 0
0 0 0
-2.66614e-05 8.3265e-05 0
0 0 0
-6.91171e-05 7.10153e-05 0
-2.66614e-05 8.3265e-05 0
0 0 0
0 0 0
-2.66614e-05 8.3265e-05 0
0 0 0
0 0 0
0 0 0
4.55603e-05 -0.000479769 0
0.000165018 0.000568336 0
0.000439131 -0.00023792 0
0.000415799 0.000358033 0
0.000165018 0.000568336 0
0.000182344 -0.000742357 0
0.000415799 0.000358033 0
0.000183533 -5.71007e-05 0
0.000439131 -0.00023792 0
0.000415799 0.000358033 0
4.48828e-05 -6.77019e-06 0
0.000120926 2.72108e-05 0
0.000415799 0.000358033 0
0.000183533 -5.71007e-05 0
0.000120926 2.72108e-05 0
0.000202193 0.000350652 0
0.000182344 -0.000742357 0
-0.000225221 0.00128814 0
0.000183533 -5.71007e-05 0
0.000606861 0.000588109 0
-0.000225221 0.00128814 0
-0.000921506 -0.000178019 0
0.000606861 0.000588109 0
0.00161304 0.000140694 0
0.000183533 -5.71007e-05 0
0.000606861 0.000588109 0
0.000202193 0.000350652 0
-0.000462152 0.000221753 0
0.000606861 0.000588109 0
0.00161304 0.000140694 0
-0.000462152 0.000221753 0
-0.00132528 0.000126334 0
4.48828e-05 -6.77019e-06 0
0.000120926 2.72108e-05 0
0.000345073 4.22791e-05 0
0.000123648 0.000238436 0
0.000120926 2.72108e-05 0
0.000202193 0.000350652 0
0.000123648 0.000238436 0
7.0877e-05 0.000104927 0
0.000345073 4.22791e-05 0
0.000123648 0.000238436 0
-0.00033985 5.9138e-05 0
-0.000390464 0.000460174 0
0.000123648 0.000238436 0
7.0877e-05 0.000104927 0
-0.000390464 0.000460174 0
-0.000431383 -0.000249291 0
0.000202193 0.000350652 0
-0.000462152 0.000221753 0
7.0877e-05 0.000104927 0
0.000497079 0.000703055 0
-0.000462152 0.000221753 0
-0.00132528 0.000126334 0
0.000497079 0.000703055 0
0.000833208 -0.000143242 0
7.0877e-05 0.000104927 0
0.000497079 0.000703055 0
-0.000431383 -0.000249291 0
-0.000507221 0.000604481 0
0.000497079 0.000703055 0
0.000833208 -0.000143242 0
-0.000507221 0.000604481 0
-0.000503559 -0.000222038 0
SCALARS pressure double 1
LOOKUP_TABLE default