# vtk DataFile Version 3.0
#This file was generated by the deal.II library on 2026/6/6 at 12:41:18
ASCII
DATASET UNSTRUCTURED_GRID

POINTS 100 double
0 0 0
0.2 0 0
0 0.2 0
0.2 0.2 0
0 0.2 0
0.2 0.2 0
0 0.4 0
0.2 0.4 0
0 0.4 0
0.2 0.4 0
0 0.6 0
0.2 0.6 0
0 0.6 0
0.2 0.6 0
0 0.8 0
0.2 0.8 0
0 0.8 0
0.2 0.8 0
0 1 0
0.2 1 0
0.2 0 0
0.4 0 0
0.2 0.2 0
0.4 0.2 0
0.2 0.2 0
0.4 0.2 0
0.2 0.4 0
0.4 0.4 0
0.2 0.4 0
0.4 0.4 0
0.2 0.6 0
0.4 0.6 0
0.2 0.6 0
0.4 0.6 0
0.2 0.8 0
0.4 0.8 0
0.2 0.8 0
0.4 0.8 0
0.2 1 0
0.4 1 0
0.4 0 0
0.6 0 0
0.4 0.2 0
0.6 0.2 0
0.4 0.2 0
0.6 0.2 0
0.4 0.4 0
0.6 0.4 0
0.4 0.4 0
0.6 0.4 0
0.4 0.6 0
0.6 0.6 0
0.4 0.6 0
0.6 0.6 0
0.4 0.8 0
0.6 0.8 0
0.4 0.8 0
0.6 0.8 0
0.4 1 0
0.6 1 0
0.6 0 0
0.8 0 0
0.6 0.2 0
0.8 0.2 0
0.6 0.2 0
0.8 0.2 0
0.6 0.4 0
0.8 0.4 0
0.6 0.4 0
0.8 0.4 0
0.6 0.6 0
0.8 0.6 0
0.6 0.6 0
0.8 0.6 0
0.6 0.8 0
0.8 0.8 0
0.6 0.8 0
0.8 0.8 0
0.6 1 0
0.8 1 0
0.8 0 0
1 0 0
0.8 0.2 0
1 0.2 0
0.8 0.2 0
1 0.2 0
0.8 0.4 0
1 0.4 0
0.8 0.4 0
1 0.4 0
0.8 0.6 0
1 0.6 0
0.8 0.6 0
1 0.6 0
0.8 0.8 0
1 0.8 0
0.8 0.8 0
1 0.8 0
0.8 1 0
1 1 0

CELLS 25 125
4	0	1	3	2
4	4	5	7	6
4	8	9	11	10
4	12	13	15	14
4	16	17	19	18
4	20	21	23	22
4	24	25	27	26
4	28	29	31	30
4	32	33	35	34
4	36	37	39	38
4	40	41	43	42
4	44	45	47	46
4	48	49	51	50
4	52	53	55	54
4	56	57	59	58
4	60	61	63	62
4	64	65	67	66
4	68	69	71	70
4	72	73	75	74
4	76	77	79	78
4	80	81	83	82
4	84	85	87	86
4	88	89	91	90
4	92	93	95	94
4	96	97	99	98

CELL_TYPES 25
 9 9 9 9 9 9 9 9 9 9 9 9 9 9 9 9 9 9 9 9 9 9 9 9 9
POINT_DATA 100
VECTORS velocity double
0 0 0
0.587785 0 0
0 -0.587785 0
0.475106 -0.47847 0
0 -0.587785 0
0.475106 -0.47847 0
0 -0.951057 0
0.185393 -0.77199 0
0 -0.951057 0
0.185393 -0.77199 0
0 -0.951057 0
-0.178476 -0.768877 0
0 -0.951057 0
-0.178476 -0.768877 0
0 -0.587785 0
-0.475295 -0.473206 0
0 -0.587785 0
-0.475295 -0.473206 0
0 -1.22465e-16 0
-0.587785 -9.9076e-17 0
0.587785 0 0
0.951057 0 0
0.475106 -0.47847 0
0.771646 -0.181155 0
0.475106 -0.47847 0
0.771646 -0.181155 0
0.185393 -0.77199 0
0.298556 -0.294026 0
0.185393 -0.77199 0
0.298556 -0.294026 0
-0.178476 -0.768877 0
-0.290285 -0.294569 0
-0.178476 -0.768877 0
-0.290285 -0.294569 0
-0.475295 -0.473206 0
-0.768907 -0.182419 0
-0.475295 -0.473206 0
-0.768907 -0.182419 0
-0.587785 -9.9076e-17 0
-0.951057 -3.78437e-17 0
0.951057 0 0
0.951057 0 0
0.771646 -0.181155 0
0.774079 0.183801 0
0.771646 -0.181155 0
0.774079 0.183801 0
0.298556 -0.294026 0
0.298014 0.295613 0
0.298556 -0.294026 0
0.298014 0.295613 0
-0.290285 -0.294569 0
-0.291626 0.294274 0
-0.290285 -0.294569 0
-0.291626 0.294274 0
-0.768907 -0.182419 0
-0.767889 0.180996 0
-0.768907 -0.182419 0
-0.767889 0.180996 0
-0.951057 -3.78437e-17 0
-0.951057 3.78437e-17 0
0.951057 0 0
0.587785 0 0
0.774079 0.183801 0
0.479221 0.475413 0
0.774079 0.183801 0
0.479221 0.475413 0
0.298014 0.295613 0
0.183675 0.770658 0
0.298014 0.295613 0
0.183675 0.770658 0
-0.291626 0.294274 0
-0.180827 0.770995 0
-0.291626 0.294274 0
-0.180827 0.770995 0
-0.767889 0.180996 0
-0.473513 0.476046 0
-0.767889 0.180996 0
-0.473513 0.476046 0
-0.951057 3.78437e-17 0
-0.587785 9.9076e-17 0
0.587785 0 0
1.22465e-16 0 0
0.479221 0.475413 0
9.9076e-17 0.587785 0
0.479221 0.475413 0
9.9076e-17 0.587785 0
0.183675 0.770658 0
3.78437e-17 0.951057 0
0.183675 0.770658 0
3.78437e-17 0.951057 0
-0.180827 0.770995 0
-3.78437e-17 0.951057 0
-0.180827 0.770995 0
-3.78437e-17 0.951057 0
-0.473513 0.476046 0
-9.9076e-17 0.587785 0
-0.473513 0.476046 0
-9.9076e-17 0.587785 0
-0.587785 9.9076e-17 0
-1.22465e-16 1.22465e-16 0
VECTORS velocity_error double
0 0 0
0 0 0
0 0 0
0.000422734 0.00294217 0
0 0 0
0.000422734 0.00294217 0
0 0 0
-0.00375712 0.00256955 0
0 0 0
-0.00375712 0.00256955 0
0 0 0
-0.00315951 -0.000543793 0
0 0 0
-0.00315951 -0.000543793 0
0 0 0
-0.00023279 -0.00232229 0
0 0 0
-0.00023279 -0.00232229 0
0 0 0
0 0 0
0 0 0
0 0 0
0.000422734 0.00294217 0
-0.00222543 -0.000480456 0
0.000422734 0.00294217 0
-0.00222543 -0.000480456 0
-0.00375712 0.00256955 0
-0.0046631 0.000132985 0
-0.00375712 0.00256955 0
-0.0046631 0.000132985 0
-0.00315951 -0.000543793 0
-0.00360725 0.000675868 0
-0.00315951 -0.000543793 0
-0.00360725 0.000675868 0
-0.00023279 -0.00232229 0
-0.000514378 0.000783583 0
-0.00023279 -0.00232229 0
-0.000514378 0.000783583 0
0 0 0
0 0 0
0 0 0
0 0 0
-0.00222543 -0.000480456 0
-0.00465809 -0.00216489 0
-0.00222543 -0.000480456 0
-0.00465809 -0.00216489 0
-0.0046631 0.000132985 0
-0.00412116 -0.00172086 0
-0.0046631 0.000132985 0
-0.00412116 -0.00172086 0
-0.00360725 0.000675868 0
-0.0022668 -0.000380954 0
-0.00360725 0.000675868 0
-0.0022668 -0.000380954 0
-0.000514378 0.000783583 0
-0.00153206 0.000639696 0
-0.000514378 0.000783583 0
-0.00153206 0.000639696 0
0 0 0
0 0 0
0 0 0
0 0 0
-0.00465809 -0.00216489 0
-0.00369264 0.0001156 0
-0.00465809 -0.00216489 0
-0.00369264 0.0001156 0
-0.00412116 -0.00172086 0
-0.00203945 -0.0012372 0
-0.00412116 -0.00172086 0
-0.00203945 -0.0012372 0
-0.0022668 -0.000380954 0
-0.000808788 -0.00157422 0
-0.0022668 -0.000380954 0
-0.000808788 -0.00157422 0
-0.00153206 0.000639696 0
-0.00201544 -0.000517844 0
-0.00153206 0.000639696 0
-0.00201544 -0.000517844 0
0 0 0
0 0 0
0 0 0
0 0 0
-0.00369264 0.0001156 0
0 0 0
-0.00369264 0.0001156 0
0 0 0
-0.00203945 -0.0012372 0
0 0 0
-0.00203945 -0.0012372 0
0 0 0
-0.000808788 -0.00157422 0
0 0 0
-0.000808788 -0.00157422 0
0 0 0
-0.00201544 -0.000517844 0
0 0 0
-0.00201544 -0.000517844 0
0 0 0
0 0 0
0 0 0
SCALARS pressure double 1
LOOKUP_TABLE default
-0.0227561 -0.00147973 0.619192 0.502401 0.619192 0.502401 1.0151 0.82575 1.0151 0.82575 1.01594 0.825708 1.01594 0.825708 0.619428 0.502349 0.619428 0.502349 -0.0178748 -0.00344144 -0.00147973 0.00114659 0.502401 0.197693 0.502401 0.197693 0.82575 0.324034 0.82575 0.324034 0.825708 0.323821 0.825708 0.323821 0.502349 0.197077 0.502349 0.197077 -0.00344144 0.000346955 0.00114659 -0.00200594 0.197693 -0.189745 0.197693 -0.189745 0.324034 -0.303782 0.324034 -0.303782 0.323821 -0.303995 0.323821 -0.303995 0.197077 -0.190007 0.197077 -0.190007 0.000346955 -0.00171472 -0.00200594 -0.0128343 -0.189745 -0.510368 -0.189745 -0.510368 -0.303782 -0.818022 -0.303782 -0.818022 -0.303995 -0.818416 -0.303995 -0.818416 -0.190007 -0.510421 -0.190007 -0.510421 -0.00171472 -0.0128635 -0.0128343 -0.0245901 -0.510368 -0.633771 -0.510368 -0.633771 -0.818022 -1.01651 -0.818022 -1.01651 -0.818416 -1.01676 -0.818416 -1.01676 -0.510421 -0.635467 -0.510421 -0.635467 -0.0128635 -0.0197108 
SCALARS pressure_error double 1
LOOKUP_TABLE default
0.0227561 0.00147973 -0.0314068 -0.0268728 -0.0314068 -0.0268728 -0.0640428 -0.056329 -0.0640428 -0.056329 -0.0648869 -0.0562876 -0.0648869 -0.0562876 -0.0316423 -0.0268207 -0.0316423 -0.0268207 0.0178748 0.00344144 0.00147973 -0.00114659 -0.0268728 -0.0160574 -0.0268728 -0.0160574 -0.056329 -0.0301413 -0.056329 -0.0301413 -0.0562876 -0.0299279 -0.0562876 -0.0299279 -0.0268207 -0.0154413 -0.0268207 -0.0154413 0.00344144 -0.000346955 -0.00114659 0.00200594 -0.0160574 0.00810964 -0.0160574 0.00810964 -0.0301413 0.00988923 -0.0301413 0.00988923 -0.0299279 0.0101022 -0.0299279 0.0101022 -0.0154413 0.00837155 -0.0154413 0.00837155 -0.000346955 0.00171472 0.00200594 0.0128343 0.00810964 0.0348401 0.00810964 0.0348401 0.00988923 0.0486009 0.00988923 0.0486009 0.0101022 0.0489953 0.0101022 0.0489953 0.00837155 0.0348925 0.00837155 0.0348925 0.00171472 0.0128635 0.0128343 0.0245901 0.0348401 0.0459859 0.0348401 0.0459859 0.0486009 0.0654526 0.0486009 0.0654526 0.0489953 0.0656995 0.0489953 0.0656995 0.0348925 0.0476821 0.0348925 0.0476821 0.0128635 0.0197108 
SCALARS temperature double 1
LOOKUP_TABLE default
0 0 0 0 0 0 0 0 0 0 0 0 0 0 0 0 0 0 0 0 0 0 0 0 0 0 0 0 0 0 0 0 0 0 0 0 0 0 0 0 0 0 0 0 0 0 0 0 0 0 0 0 0 0 0 0 0 0 0 0 0 0 0 0 0 0 0 0 0 0 0 0 0 0 0 0 0 0 0 0 0 0 0 0 0 0 0 0 0 0 0 0 0 0 0 0 0 0 0 0 
SCALARS temperature_error double 1
LOOKUP_TABLE default
0 0 0.587785 0.181636 0.587785 0.181636 0.951057 0.293893 0.951057 0.293893 0.951057 0.293893 0.951057 0.293893 0.587785 0.181636 0.587785 0.181636 1.22465e-16 3.78437e-17 0 0 0.181636 -0.475528 0.181636 -0.475528 0.293893 -0.769421 0.293893 -0.769421 0.293893 -0.769421 0.293893 -0.769421 0.181636 -0.475528 0.181636 -0.475528 3.78437e-17 -9.9076e-17 0 0 -0.475528 -0.475528 -0.475528 -0.475528 -0.769421 -0.769421 -0.769421 -0.769421 -0.769421 -0.769421 -0.769421 -0.769421 -0.475528 -0.475528 -0.475528 -0.475528 -9.9076e-17 -9.9076e-17 0 0 -0.475528 0.181636 -0.475528 0.181636 -0.769421 0.293893 -0.769421 0.293893 -0.769421 0.293893 -0.769421 0.293893 -0.475528 0.181636 -0.475528 0.181636 -9.9076e-17 3.78437e-17 0 0 0.181636 0.587785 0.181636 0.587785 0.293893 0.951057 0.293893 0.951057 0.293893 0.951057 0.293893 0.951057 0.181636 0.587785 0.181636 0.587785 3.78437e-17 1.22465e-16 
