# vtk DataFile Version 3.0
#This file was generated by the deal.II library on 2026/6/5 at 21:07:09
ASCII
DATASET UNSTRUCTURED_GRID

POINTS 448 double
0.2 0 0
0.3 0 0
0.2 0.1 0
0.3 0.1 0
0.3 0 0
0.4 0 0
0.3 0.1 0
0.4 0.1 0
0.2 0.1 0
0.3 0.1 0
0.2 0.2 0
0.3 0.2 0
0.3 0.1 0
0.4 0.1 0
0.3 0.2 0
0.4 0.2 0
0.2 0.2 0
0.3 0.2 0
0.2 0.3 0
0.3 0.3 0
0.3 0.2 0
0.4 0.2 0
0.3 0.3 0
0.4 0.3 0
0.2 0.3 0
0.3 0.3 0
0.2 0.4 0
0.3 0.4 0
0.3 0.3 0
0.4 0.3 0
0.3 0.4 0
0.4 0.4 0
0.2 0.4 0
0.3 0.4 0
0.2 0.5 0
0.3 0.5 0
0.3 0.4 0
0.4 0.4 0
0.3 0.5 0
0.4 0.5 0
0.2 0.5 0
0.3 0.5 0
0.2 0.6 0
0.3 0.6 0
0.3 0.5 0
0.4 0.5 0
0.3 0.6 0
0.4 0.6 0
0.4 0 0
0.5 0 0
0.4 0.1 0
0.5 0.1 0
0.5 0 0
0.6 0 0
0.5 0.1 0
0.6 0.1 0
0.4 0.1 0
0.5 0.1 0
0.4 0.2 0
0.5 0.2 0
0.5 0.1 0
0.6 0.1 0
0.5 0.2 0
0.6 0.2 0
0.4 0.2 0
0.5 0.2 0
0.4 0.3 0
0.5 0.3 0
0.5 0.2 0
0.6 0.2 0
0.5 0.3 0
0.6 0.3 0
0.4 0.3 0
0.5 0.3 0
0.4 0.4 0
0.5 0.4 0
0.5 0.3 0
0.6 0.3 0
0.5 0.4 0
0.6 0.4 0
0.4 0.4 0
0.5 0.4 0
0.4 0.5 0
0.5 0.5 0
0.5 0.4 0
0.6 0.4 0
0.5 0.5 0
0.6 0.5 0
0.4 0.5 0
0.5 0.5 0
0.4 0.6 0
0.5 0.6 0
0.5 0.5 0
0.6 0.5 0
0.5 0.6 0
0.6 0.6 0
0.6 0 0
0.7 0 0
0.6 0.1 0
0.7 0.1 0
0.7 0 0
0.8 0 0
0.7 0.1 0
0.8 0.1 0
0.6 0.1 0
0.7 0.1 0
0.6 0.2 0
0.7 0.2 0
0.7 0.1 0
0.8 0.1 0
0.7 0.2 0
0.8 0.2 0
0.6 0.4 0
0.7 0.4 0
0.6 0.5 0
0.7 0.5 0
0.7 0.4 0
0.8 0.4 0
0.7 0.5 0
0.8 0.5 0
0.6 0.5 0
0.7 0.5 0
0.6 0.6 0
0.7 0.6 0
0.7 0.5 0
0.8 0.5 0
0.7 0.6 0
0.8 0.6 0
0 0 0
0.1 0 0
0 0.1 0
0.1 0.1 0
0.1 0 0
0.2 0 0
0.1 0.1 0
0.2 0.1 0
0 0.1 0
0.1 0.1 0
0 0.2 0
0.1 0.2 0
0.1 0.1 0
0.2 0.1 0
0.1 0.2 0
0.2 0.2 0
0 0.2 0
0.1 0.2 0
0 0.3 0
0.1 0.3 0
0.1 0.2 0
0.2 0.2 0
0.1 0.3 0
0.2 0.3 0
0 0.3 0
0.1 0.3 0
0 0.4 0
0.1 0.4 0
0.1 0.3 0
0.2 0.3 0
0.1 0.4 0
0.2 0.4 0
0 0.4 0
0.1 0.4 0
0 0.5 0
0.1 0.5 0
0.1 0.4 0
0.2 0.4 0
0.1 0.5 0
0.2 0.5 0
0 0.5 0
0.1 0.5 0
0 0.6 0
0.1 0.6 0
0.1 0.5 0
0.2 0.5 0
0.1 0.6 0
0.2 0.6 0
0 0.6 0
0.1 0.6 0
0 0.7 0
0.1 0.7 0
0.1 0.6 0
0.2 0.6 0
0.1 0.7 0
0.2 0.7 0
0 0.7 0
0.1 0.7 0
0 0.8 0
0.1 0.8 0
0.1 0.7 0
0.2 0.7 0
0.1 0.8 0
0.2 0.8 0
0 0.8 0
0.1 0.8 0
0 0.9 0
0.1 0.9 0
0.1 0.8 0
0.2 0.8 0
0.1 0.9 0
0.2 0.9 0
0 0.9 0
0.1 0.9 0
0 1 0
0.1 1 0
0.1 0.9 0
0.2 0.9 0
0.1 1 0
0.2 1 0
0.2 0.6 0
0.3 0.6 0
0.2 0.7 0
0.3 0.7 0
0.3 0.6 0
0.4 0.6 0
0.3 0.7 0
0.4 0.7 0
0.2 0.7 0
0.3 0.7 0
0.2 0.8 0
0.3 0.8 0
0.3 0.7 0
0.4 0.7 0
0.3 0.8 0
0.4 0.8 0
0.2 0.8 0
0.3 0.8 0
0.2 0.9 0
0.3 0.9 0
0.3 0.8 0
0.4 0.8 0
0.3 0.9 0
0.4 0.9 0
0.2 0.9 0
0.3 0.9 0
0.2 1 0
0.3 1 0
0.3 0.9 0
0.4 0.9 0
0.3 1 0
0.4 1 0
0.4 0.6 0
0.5 0.6 0
0.4 0.7 0
0.5 0.7 0
0.5 0.6 0
0.6 0.6 0
0.5 0.7 0
0.6 0.7 0
0.4 0.7 0
0.5 0.7 0
0.4 0.8 0
0.5 0.8 0
0.5 0.7 0
0.6 0.7 0
0.5 0.8 0
0.6 0.8 0
0.4 0.8 0
0.5 0.8 0
0.4 0.9 0
0.5 0.9 0
0.5 0.8 0
0.6 0.8 0
0.5 0.9 0
0.6 0.9 0
0.4 0.9 0
0.5 0.9 0
0.4 1 0
0.5 1 0
0.5 0.9 0
0.6 0.9 0
0.5 1 0
0.6 1 0
0.6 0.6 0
0.7 0.6 0
0.6 0.7 0
0.7 0.7 0
0.7 0.6 0
0.8 0.6 0
0.7 0.7 0
0.8 0.7 0
0.6 0.7 0
0.7 0.7 0
0.6 0.8 0
0.7 0.8 0
0.7 0.7 0
0.8 0.7 0
0.7 0.8 0
0.8 0.8 0
0.6 0.8 0
0.7 0.8 0
0.6 0.9 0
0.7 0.9 0
0.7 0.8 0
0.8 0.8 0
0.7 0.9 0
0.8 0.9 0
0.6 0.9 0
0.7 0.9 0
0.6 1 0
0.7 1 0
0.7 0.9 0
0.8 0.9 0
0.7 1 0
0.8 1 0
0.8 0 0
0.9 0 0
0.8 0.1 0
0.9 0.1 0
0.9 0 0
1 0 0
0.9 0.1 0
1 0.1 0
0.8 0.1 0
0.9 0.1 0
0.8 0.2 0
0.9 0.2 0
0.9 0.1 0
1 0.1 0
0.9 0.2 0
1 0.2 0
0.8 0.2 0
0.9 0.2 0
0.8 0.3 0
0.9 0.3 0
0.9 0.2 0
1 0.2 0
0.9 0.3 0
1 0.3 0
0.8 0.3 0
0.9 0.3 0
0.8 0.4 0
0.9 0.4 0
0.9 0.3 0
1 0.3 0
0.9 0.4 0
1 0.4 0
0.8 0.4 0
0.9 0.4 0
0.8 0.5 0
0.9 0.5 0
0.9 0.4 0
1 0.4 0
0.9 0.5 0
1 0.5 0
0.8 0.5 0
0.9 0.5 0
0.8 0.6 0
0.9 0.6 0
0.9 0.5 0
1 0.5 0
0.9 0.6 0
1 0.6 0
0.8 0.6 0
0.9 0.6 0
0.8 0.7 0
0.9 0.7 0
0.9 0.6 0
1 0.6 0
0.9 0.7 0
1 0.7 0
0.8 0.7 0
0.9 0.7 0
0.8 0.8 0
0.9 0.8 0
0.9 0.7 0
1 0.7 0
0.9 0.8 0
1 0.8 0
0.8 0.8 0
0.9 0.8 0
0.8 0.9 0
0.9 0.9 0
0.9 0.8 0
1 0.8 0
0.9 0.9 0
1 0.9 0
0.8 0.9 0
0.9 0.9 0
0.8 1 0
0.9 1 0
0.9 0.9 0
1 0.9 0
0.9 1 0
1 1 0
0.6 0.2 0
0.65 0.2 0
0.6 0.25 0
0.65 0.25 0
0.65 0.2 0
0.7 0.2 0
0.65 0.25 0
0.7 0.25 0
0.6 0.25 0
0.65 0.25 0
0.6 0.3 0
0.65 0.3 0
0.65 0.25 0
0.7 0.25 0
0.65 0.3 0
0.7 0.3 0
0.7 0.2 0
0.75 0.2 0
0.7 0.25 0
0.75 0.25 0
0.75 0.2 0
0.8 0.2 0
0.75 0.25 0
0.8 0.25 0
0.7 0.25 0
0.75 0.25 0
0.7 0.3 0
0.75 0.3 0
0.75 0.25 0
0.8 0.25 0
0.75 0.3 0
0.8 0.3 0
0.6 0.3 0
0.65 0.3 0
0.6 0.35 0
0.65 0.35 0
0.65 0.3 0
0.7 0.3 0
0.65 0.35 0
0.7 0.35 0
0.6 0.35 0
0.65 0.35 0
0.6 0.4 0
0.65 0.4 0
0.65 0.35 0
0.7 0.35 0
0.65 0.4 0
0.7 0.4 0
0.7 0.3 0
0.75 0.3 0
0.7 0.35 0
0.75 0.35 0
0.75 0.3 0
0.8 0.3 0
0.75 0.35 0
0.8 0.35 0
0.7 0.35 0
0.75 0.35 0
0.7 0.4 0
0.75 0.4 0
0.75 0.35 0
0.8 0.35 0
0.75 0.4 0
0.8 0.4 0

CELLS 112 560
4	0	1	3	2
4	4	5	7	6
4	8	9	11	10
4	12	13	15	14
4	16	17	19	18
4	20	21	23	22
4	24	25	27	26
4	28	29	31	30
4	32	33	35	34
4	36	37	39	38
4	40	41	43	42
4	44	45	47	46
4	48	49	51	50
4	52	53	55	54
4	56	57	59	58
4	60	61	63	62
4	64	65	67	66
4	68	69	71	70
4	72	73	75	74
4	76	77	79	78
4	80	81	83	82
4	84	85	87	86
4	88	89	91	90
4	92	93	95	94
4	96	97	99	98
4	100	101	103	102
4	104	105	107	106
4	108	109	111	110
4	112	113	115	114
4	116	117	119	118
4	120	121	123	122
4	124	125	127	126
4	128	129	131	130
4	132	133	135	134
4	136	137	139	138
4	140	141	143	142
4	144	145	147	146
4	148	149	151	150
4	152	153	155	154
4	156	157	159	158
4	160	161	163	162
4	164	165	167	166
4	168	169	171	170
4	172	173	175	174
4	176	177	179	178
4	180	181	183	182
4	184	185	187	186
4	188	189	191	190
4	192	193	195	194
4	196	197	199	198
4	200	201	203	202
4	204	205	207	206
4	208	209	211	210
4	212	213	215	214
4	216	217	219	218
4	220	221	223	222
4	224	225	227	226
4	228	229	231	230
4	232	233	235	234
4	236	237	239	238
4	240	241	243	242
4	244	245	247	246
4	248	249	251	250
4	252	253	255	254
4	256	257	259	258
4	260	261	263	262
4	264	265	267	266
4	268	269	271	270
4	272	273	275	274
4	276	277	279	278
4	280	281	283	282
4	284	285	287	286
4	288	289	291	290
4	292	293	295	294
4	296	297	299	298
4	300	301	303	302
4	304	305	307	306
4	308	309	311	310
4	312	313	315	314
4	316	317	319	318
4	320	321	323	322
4	324	325	327	326
4	328	329	331	330
4	332	333	335	334
4	336	337	339	338
4	340	341	343	342
4	344	345	347	346
4	348	349	351	350
4	352	353	355	354
4	356	357	359	358
4	360	361	363	362
4	364	365	367	366
4	368	369	371	370
4	372	373	375	374
4	376	377	379	378
4	380	381	383	382
4	384	385	387	386
4	388	389	391	390
4	392	393	395	394
4	396	397	399	398
4	400	401	403	402
4	404	405	407	406
4	408	409	411	410
4	412	413	415	414
4	416	417	419	418
4	420	421	423	422
4	424	425	427	426
4	428	429	431	430
4	432	433	435	434
4	436	437	439	438
4	440	441	443	442
4	444	445	447	446

CELL_TYPES 112
 9 9 9 9 9 9 9 9 9 9 9 9 9 9 9 9 9 9 9 9 9 9 9 9 9 9 9 9 9 9 9 9 9 9 9 9 9 9 9 9 9 9 9 9 9 9 9 9 9 9 9 9 9 9 9 9 9 9 9 9 9 9 9 9 9 9 9 9 9 9 9 9 9 9 9 9 9 9 9 9 9 9 9 9 9 9 9 9 9 9 9 9 9 9 9 9 9 9 9 9 9 9 9 9 9 9 9 9 9 9 9 9
POINT_DATA 448
VECTORS velocity double
0.587785 0 0
0.809017 0 0
0.558964 -0.250229 0
0.76944 -0.181794 0
0.809017 0 0
0.951057 0 0
0.76944 -0.181794 0
0.90462 -0.0955529 0
0.558964 -0.250229 0
0.76944 -0.181794 0
0.475632 -0.475899 0
0.654743 -0.345754 0
0.76944 -0.181794 0
0.90462 -0.0955529 0
0.654743 -0.345754 0
0.769732 -0.181728 0
0.475632 -0.475899 0
0.654743 -0.345754 0
0.345767 -0.654931 0
0.475833 -0.47582 0
0.654743 -0.345754 0
0.769732 -0.181728 0
0.475833 -0.47582 0
0.559334 -0.25017 0
0.345767 -0.654931 0
0.475833 -0.47582 0
0.181836 -0.769764 0
0.250274 -0.559263 0
0.475833 -0.47582 0
0.559334 -0.25017 0
0.250274 -0.559263 0
0.294227 -0.294058 0
0.181836 -0.769764 0
0.250274 -0.559263 0
0.000203522 -0.809234 0
0.000288446 -0.587975 0
0.250274 -0.559263 0
0.294227 -0.294058 0
0.000288446 -0.587975 0
0.000374629 -0.309115 0
0.000203522 -0.809234 0
0.000288446 -0.587975 0
-0.181538 -0.769492 0
-0.249844 -0.559136 0
0.000288446 -0.587975 0
0.000374629 -0.309115 0
-0.249844 -0.559136 0
-0.293679 -0.293937 0
0.951057 0 0
1 0 0
0.90462 -0.0955529 0
0.951271 -5.99904e-06 0
1 0 0
0.951057 0 0
0.951271 -5.99904e-06 0
0.904808 0.0956568 0
0.90462 -0.0955529 0
0.951271 -5.99904e-06 0
0.769732 -0.181728 0
0.809267 4.60338e-05 0
0.951271 -5.99904e-06 0
0.904808 0.0956568 0
0.809267 4.60338e-05 0
0.769377 0.182108 0
0.769732 -0.181728 0
0.809267 4.60338e-05 0
0.559334 -0.25017 0
0.587996 5.2339e-05 0
0.809267 4.60338e-05 0
0.769377 0.182108 0
0.587996 5.2339e-05 0
0.558975 0.249999 0
0.559334 -0.25017 0
0.587996 5.2339e-05 0
0.294227 -0.294058 0
0.309411 -2.6546e-05 0
0.587996 5.2339e-05 0
0.558975 0.249999 0
0.309411 -2.6546e-05 0
0.294239 0.293828 0
0.294227 -0.294058 0
0.309411 -2.6546e-05 0
0.000374629 -0.309115 0
0.000400221 -2.57797e-05 0
0.309411 -2.6546e-05 0
0.294239 0.293828 0
0.000400221 -2.57797e-05 0
0.000368393 0.309069 0
0.000374629 -0.309115 0
0.000400221 -2.57797e-05 0
-0.293679 -0.293937 0
-0.308782 1.68292e-05 0
0.000400221 -2.57797e-05 0
0.000368393 0.309069 0
-0.308782 1.68292e-05 0
-0.293683 0.293997 0
0.951057 0 0
0.809017 0 0
0.904808 0.0956568 0
0.769774 0.181937 0
0.809017 0 0
0.587785 0 0
0.769774 0.181937 0
0.559196 0.250272 0
0.904808 0.0956568 0
0.769774 0.181937 0
0.769377 0.182108 0
0.654315 0.346192 0
0.769774 0.181937 0
0.559196 0.250272 0
0.654315 0.346192 0
0.476427 0.475705 0
0.294239 0.293828 0
0.250437 0.559238 0
0.000368393 0.309069 0
0.00031991 0.588016 0
0.250437 0.559238 0
0.182127 0.76961 0
0.00031991 0.588016 0
0.000291264 0.809314 0
0.000368393 0.309069 0
0.00031991 0.588016 0
-0.293683 0.293997 0
-0.249824 0.55925 0
0.00031991 0.588016 0
0.000291264 0.809314 0
-0.249824 0.55925 0
-0.181458 0.769626 0
0 0 0
0.309017 0 0
0 -0.309017 0
0.293794 -0.294153 0
0.309017 0 0
0.587785 0 0
0.293794 -0.294153 0
0.558964 -0.250229 0
0 -0.309017 0
0.293794 -0.294153 0
0 -0.587785 0
0.250014 -0.559396 0
0.293794 -0.294153 0
0.558964 -0.250229 0
0.250014 -0.559396 0
0.475632 -0.475899 0
0 -0.587785 0
0.250014 -0.559396 0
0 -0.809017 0
0.181792 -0.769831 0
0.250014 -0.559396 0
0.475632 -0.475899 0
0.181792 -0.769831 0
0.345767 -0.654931 0
0 -0.809017 0
0.181792 -0.769831 0
0 -0.951057 0
0.0956247 -0.904882 0
0.181792 -0.769831 0
0.345767 -0.654931 0
0.0956247 -0.904882 0
0.181836 -0.769764 0
0 -0.951057 0
0.0956247 -0.904882 0
0 -1 0
0.000143041 -0.951271 0
0.0956247 -0.904882 0
0.181836 -0.769764 0
0.000143041 -0.951271 0
0.000203522 -0.809234 0
0 -1 0
0.000143041 -0.951271 0
0 -0.951057 0
-0.0954152 -0.904535 0
0.000143041 -0.951271 0
0.000203522 -0.809234 0
-0.0954152 -0.904535 0
-0.181538 -0.769492 0
0 -0.951057 0
-0.0954152 -0.904535 0
0 -0.809017 0
-0.181618 -0.769251 0
-0.0954152 -0.904535 0
-0.181538 -0.769492 0
-0.181618 -0.769251 0
-0.345492 -0.654452 0
0 -0.809017 0
-0.181618 -0.769251 0
0 -0.587785 0
-0.250006 -0.558731 0
-0.181618 -0.769251 0
-0.345492 -0.654452 0
-0.250006 -0.558731 0
-0.475562 -0.475373 0
0 -0.587785 0
-0.250006 -0.558731 0
0 -0.309017 0
-0.293963 -0.293665 0
-0.250006 -0.558731 0
-0.475562 -0.475373 0
-0.293963 -0.293665 0
-0.559101 -0.249844 0
0 -0.309017 0
-0.293963 -0.293665 0
0 -1.22465e-16 0
-0.309017 -1.16471e-16 0
-0.293963 -0.293665 0
-0.559101 -0.249844 0
-0.309017 -1.16471e-16 0
-0.587785 -9.9076e-17 0
-0.181538 -0.769492 0
-0.249844 -0.559136 0
-0.345492 -0.654452 0
-0.475508 -0.475569 0
-0.249844 -0.559136 0
-0.293679 -0.293937 0
-0.475508 -0.475569 0
-0.558979 -0.249981 0
-0.345492 -0.654452 0
-0.475508 -0.475569 0
-0.475562 -0.475373 0
-0.654584 -0.345459 0
-0.475508 -0.475569 0
-0.558979 -0.249981 0
-0.654584 -0.345459 0
-0.769502 -0.181584 0
-0.475562 -0.475373 0
-0.654584 -0.345459 0
-0.559101 -0.249844 0
-0.769547 -0.181565 0
-0.654584 -0.345459 0
-0.769502 -0.181584 0
-0.769547 -0.181565 0
-0.904657 -0.0954432 0
-0.559101 -0.249844 0
-0.769547 -0.181565 0
-0.587785 -9.9076e-17 0
-0.809017 -7.19829e-17 0
-0.769547 -0.181565 0
-0.904657 -0.0954432 0
-0.809017 -7.19829e-17 0
-0.951057 -3.78437e-17 0
-0.293679 -0.293937 0
-0.308782 1.68292e-05 0
-0.558979 -0.249981 0
-0.587736 5.02706e-05 0
-0.308782 1.68292e-05 0
-0.293683 0.293997 0
-0.587736 5.02706e-05 0
-0.558973 0.250121 0
-0.558979 -0.249981 0
-0.587736 5.02706e-05 0
-0.769502 -0.181584 0
-0.809067 5.28001e-05 0
-0.587736 5.02706e-05 0
-0.558973 0.250121 0
-0.809067 5.28001e-05 0
-0.769418 0.181716 0
-0.769502 -0.181584 0
-0.809067 5.28001e-05 0
-0.904657 -0.0954432 0
-0.951165 2.0109e-05 0
-0.809067 5.28001e-05 0
-0.769418 0.181716 0
-0.951165 2.0109e-05 0
-0.90454 0.0955048 0
-0.904657 -0.0954432 0
-0.951165 2.0109e-05 0
-0.951057 -3.78437e-17 0
-1 -3.46914e-32 0
-0.951165 2.0109e-05 0
-0.90454 0.0955048 0
-1 -3.46914e-32 0
-0.951057 3.78437e-17 0
-0.293683 0.293997 0
-0.249824 0.55925 0
-0.558973 0.250121 0
-0.47547 0.475708 0
-0.249824 0.55925 0
-0.181458 0.769626 0
-0.47547 0.475708 0
-0.345381 0.654578 0
-0.558973 0.250121 0
-0.47547 0.475708 0
-0.769418 0.181716 0
-0.654437 0.345569 0
-0.47547 0.475708 0
-0.345381 0.654578 0
-0.654437 0.345569 0
-0.475396 0.475462 0
-0.769418 0.181716 0
-0.654437 0.345569 0
-0.90454 0.0955048 0
-0.76937 0.181624 0
-0.654437 0.345569 0
-0.475396 0.475462 0
-0.76937 0.181624 0
-0.558944 0.249908 0
-0.90454 0.0955048 0
-0.76937 0.181624 0
-0.951057 3.78437e-17 0
-0.809017 7.19829e-17 0
-0.76937 0.181624 0
-0.558944 0.249908 0
-0.809017 7.19829e-17 0
-0.587785 9.9076e-17 0
0.587785 0 0
0.309017 0 0
0.559196 0.250272 0
0.293875 0.293916 0
0.309017 0 0
1.22465e-16 0 0
0.293875 0.293916 0
1.16471e-16 0.309017 0
0.559196 0.250272 0
0.293875 0.293916 0
0.476427 0.475705 0
0.25067 0.559241 0
0.293875 0.293916 0
1.16471e-16 0.309017 0
0.25067 0.559241 0
9.9076e-17 0.587785 0
0.476427 0.475705 0
0.25067 0.559241 0
0.346845 0.654351 0
0.182115 0.769626 0
0.25067 0.559241 0
9.9076e-17 0.587785 0
0.182115 0.769626 0
7.19829e-17 0.809017 0
0.346845 0.654351 0
0.182115 0.769626 0
0.182127 0.76961 0
0.0956436 0.904614 0
0.182115 0.769626 0
7.19829e-17 0.809017 0
0.0956436 0.904614 0
3.78437e-17 0.951057 0
0.182127 0.76961 0
0.0956436 0.904614 0
0.000291264 0.809314 0
0.000168764 0.951158 0
0.0956436 0.904614 0
3.78437e-17 0.951057 0
0.000168764 0.951158 0
7.4988e-33 1 0
0.000291264 0.809314 0
0.000168764 0.951158 0
-0.181458 0.769626 0
-0.0953586 0.904588 0
0.000168764 0.951158 0
7.4988e-33 1 0
-0.0953586 0.904588 0
-3.78437e-17 0.951057 0
-0.181458 0.769626 0
-0.0953586 0.904588 0
-0.345381 0.654578 0
-0.18153 0.769414 0
-0.0953586 0.904588 0
-3.78437e-17 0.951057 0
-0.18153 0.769414 0
-7.19829e-17 0.809017 0
-0.345381 0.654578 0
-0.18153 0.769414 0
-0.475396 0.475462 0
-0.249898 0.558945 0
-0.18153 0.769414 0
-7.19829e-17 0.809017 0
-0.249898 0.558945 0
-9.9076e-17 0.587785 0
-0.475396 0.475462 0
-0.249898 0.558945 0
-0.558944 0.249908 0
-0.293882 0.293811 0
-0.249898 0.558945 0
-9.9076e-17 0.587785 0
-0.293882 0.293811 0
-1.16471e-16 0.309017 0
-0.558944 0.249908 0
-0.293882 0.293811 0
-0.587785 9.9076e-17 0
-0.309017 1.16471e-16 0
-0.293882 0.293811 0
-1.16471e-16 0.309017 0
-0.309017 1.16471e-16 0
-1.22465e-16 1.22465e-16 0
0.769377 0.182108 0
0.720674 0.266255 0
0.672065 0.218736 0
0.629621 0.320646 0
0.720674 0.266255 0
0.654315 0.346192 0
0.629621 0.320646 0
0.571866 0.415656 0
0.672065 0.218736 0
0.629621 0.320646 0
0.558975 0.249999 0
0.523601 0.36725 0
0.629621 0.320646 0
0.571866 0.415656 0
0.523601 0.36725 0
0.475331 0.475153 0
0.654315 0.346192 0
0.572265 0.414307 0
0.571866 0.415656 0
0.499382 0.499375 0
0.572265 0.414307 0
0.476427 0.475705 0
0.499382 0.499375 0
0.414025 0.571907 0
0.571866 0.415656 0
0.499382 0.499375 0
0.475331 0.475153 0
0.416102 0.571786 0
0.499382 0.499375 0
0.414025 0.571907 0
0.416102 0.571786 0
0.346845 0.654351 0
0.558975 0.249999 0
0.523601 0.36725 0
0.431431 0.275289 0
0.404393 0.404257 0
0.523601 0.36725 0
0.475331 0.475153 0
0.404393 0.404257 0
0.367227 0.523588 0
0.431431 0.275289 0
0.404393 0.404257 0
0.294239 0.293828 0
0.275734 0.431296 0
0.404393 0.404257 0
0.367227 0.523588 0
0.275734 0.431296 0
0.250437 0.559238 0
0.475331 0.475153 0
0.416102 0.571786 0
0.367227 0.523588 0
0.320534 0.629279 0
0.416102 0.571786 0
0.346845 0.654351 0
0.320534 0.629279 0
0.266018 0.720944 0
0.367227 0.523588 0
0.320534 0.629279 0
0.250437 0.559238 0
0.219015 0.671849 0
0.320534 0.629279 0
0.266018 0.720944 0
0.219015 0.671849 0
0.182127 0.76961 0
VECTORS velocity_error double
0 0 0
0 0 0
5.32803e-05 0.000228602 0
-1.89113e-05 0.00015869 0
0 0 0
0 0 0
-1.89113e-05 0.00015869 0
-0.000111071 6.14424e-05 0
5.32803e-05 0.000228602 0
-1.89113e-05 0.00015869 0
-0.000103552 0.000370751 0
-0.000234824 0.000262603 0
-1.89113e-05 0.00015869 0
-0.000111071 6.14424e-05 0
-0.000234824 0.000262603 0
-0.000311466 9.21908e-05 0
-0.000103552 0.000370751 0
-0.000234824 0.000262603 0
-0.000275191 0.000422508 0
-0.000304946 0.000291939 0
-0.000234824 0.000262603 0
-0.000311466 9.21908e-05 0
-0.000304946 0.000291939 0
-0.000317117 0.000169766 0
-0.000275191 0.000422508 0
-0.000304946 0.000291939 0
-0.00020039 0.000343266 0
-0.000273569 0.000245769 0
-0.000304946 0.000291939 0
-0.000317117 0.000169766 0
-0.000273569 0.000245769 0
-0.000334535 0.000165452 0
-0.00020039 0.000343266 0
-0.000273569 0.000245769 0
-0.000203522 0.000217247 0
-0.000288446 0.000190196 0
-0.000273569 0.000245769 0
-0.000334535 0.000165452 0
-0.000288446 0.000190196 0
-0.000374629 9.75145e-05 0
-0.000203522 0.000217247 0
-0.000288446 0.000190196 0
-9.75477e-05 7.09942e-05 0
-0.000155753 0.000119292 0
-0.000288446 0.000190196 0
-0.000374629 9.75145e-05 0
-0.000155753 0.000119292 0
-0.000213281 4.44798e-05 0
0 0 0
0 0 0
-0.000111071 6.14424e-05 0
-0.000214074 5.99904e-06 0
0 0 0
0 0 0
-0.000214074 5.99904e-06 0
-0.000299144 -0.000165251 0
-0.000111071 6.14424e-05 0
-0.000214074 5.99904e-06 0
-0.000311466 9.21908e-05 0
-0.000249632 -4.60338e-05 0
-0.000214074 5.99904e-06 0
-0.000299144 -0.000165251 0
-0.000249632 -4.60338e-05 0
4.35563e-05 -0.000472596 0
-0.000311466 9.21908e-05 0
-0.000249632 -4.60338e-05 0
-0.000317117 0.000169766 0
-0.000210904 -5.2339e-05 0
-0.000249632 -4.60338e-05 0
4.35563e-05 -0.000472596 0
-0.000210904 -5.2339e-05 0
4.21009e-05 5.93065e-07 0
-0.000317117 0.000169766 0
-0.000210904 -5.2339e-05 0
-0.000334535 0.000165452 0
-0.00039402 2.6546e-05 0
-0.000210904 -5.2339e-05 0
4.21009e-05 5.93065e-07 0
-0.00039402 2.6546e-05 0
-0.000346254 6.45862e-05 0
-0.000334535 0.000165452 0
-0.00039402 2.6546e-05 0
-0.000374629 9.75145e-05 0
-0.000400221 2.57797e-05 0
-0.00039402 2.6546e-05 0
-0.000346254 6.45862e-05 0
-0.000400221 2.57797e-05 0
-0.000368393 -5.19469e-05 0
-0.000374629 9.75145e-05 0
-0.000400221 2.57797e-05 0
-0.000213281 4.44798e-05 0
-0.000235084 -1.68292e-05 0
-0.000400221 2.57797e-05 0
-0.000368393 -5.19469e-05 0
-0.000235084 -1.68292e-05 0
-0.000209599 -0.000103987 0
0 0 0
0 0 0
-0.000299144 -0.000165251 0
-0.000353515 -0.000300949 0
0 0 0
0 0 0
-0.000353515 -0.000300949 0
-0.000178729 -0.000272461 0
-0.000299144 -0.000165251 0
-0.000353515 -0.000300949 0
4.35563e-05 -0.000472596 0
0.000193977 -0.000700028 0
-0.000353515 -0.000300949 0
-0.000178729 -0.000272461 0
0.000193977 -0.000700028 0
-0.000898376 -0.000176284 0
-0.000346254 6.45862e-05 0
-0.000437509 -0.000221408 0
-0.000368393 -5.19469e-05 0
-0.00031991 -0.000231001 0
-0.000437509 -0.000221408 0
-0.000491011 -0.000189536 0
-0.00031991 -0.000231001 0
-0.000291264 -0.00029746 0
-0.000368393 -5.19469e-05 0
-0.00031991 -0.000231001 0
-0.000209599 -0.000103987 0
-0.000175876 -0.000232817 0
-0.00031991 -0.000231001 0
-0.000291264 -0.00029746 0
-0.000175876 -0.000232817 0
-0.000177648 -0.000205276 0
0 0 0
0 0 0
0 0 0
9.81649e-05 0.000260089 0
0 0 0
0 0 0
9.81649e-05 0.000260089 0
5.32803e-05 0.000228602 0
0 0 0
9.81649e-05 0.000260089 0
0 0 0
-1.38698e-05 0.000378675 0
9.81649e-05 0.000260089 0
5.32803e-05 0.000228602 0
-1.38698e-05 0.000378675 0
-0.000103552 0.000370751 0
0 0 0
-1.38698e-05 0.000378675 0
0 0 0
-0.000156583 0.00040986 0
-1.38698e-05 0.000378675 0
-0.000103552 0.000370751 0
-0.000156583 0.00040986 0
-0.000275191 0.000422508 0
0 0 0
-0.000156583 0.00040986 0
0 0 0
-0.000133233 0.000373761 0
-0.000156583 0.00040986 0
-0.000275191 0.000422508 0
-0.000133233 0.000373761 0
-0.00020039 0.000343266 0
0 0 0
-0.000133233 0.000373761 0
0 0 0
-0.000143041 0.000214684 0
-0.000133233 0.000373761 0
-0.00020039 0.000343266 0
-0.000143041 0.000214684 0
-0.000203522 0.000217247 0
0 0 0
-0.000143041 0.000214684 0
0 0 0
-7.63399e-05 2.64215e-05 0
-0.000143041 0.000214684 0
-0.000203522 0.000217247 0
-7.63399e-05 2.64215e-05 0
-9.75477e-05 7.09942e-05 0
0 0 0
-7.63399e-05 2.64215e-05 0
0 0 0
-1.78716e-05 -0.000169973 0
-7.63399e-05 2.64215e-05 0
-9.75477e-05 7.09942e-05 0
-1.78716e-05 -0.000169973 0
9.20518e-07 -5.67938e-05 0
0 0 0
-1.78716e-05 -0.000169973 0
0 0 0
6.40415e-06 -0.000286217 0
-1.78716e-05 -0.000169973 0
9.20518e-07 -5.67938e-05 0
6.40415e-06 -0.000286217 0
3.40076e-05 -0.000155465 0
0 0 0
6.40415e-06 -0.000286217 0
0 0 0
7.08436e-05 -0.000227869 0
6.40415e-06 -0.000286217 0
3.40076e-05 -0.000155465 0
7.08436e-05 -0.000227869 0
8.40017e-05 -0.000156333 0
0 0 0
7.08436e-05 -0.000227869 0
0 0 0
0 0 0
7.08436e-05 -0.000227869 0
8.40017e-05 -0.000156333 0
0 0 0
0 0 0
-9.75477e-05 7.09942e-05 0
-0.000155753 0.000119292 0
9.20518e-07 -5.67938e-05 0
-2.03004e-05 4.05893e-05 0
-0.000155753 0.000119292 0
-0.000213281 4.44798e-05 0
-2.03004e-05 4.05893e-05 0
-3.82611e-05 -1.89126e-05 0
9.20518e-07 -5.67938e-05 0
-2.03004e-05 4.05893e-05 0
3.40076e-05 -0.000155465 0
7.50973e-05 -3.27957e-05 0
-2.03004e-05 4.05893e-05 0
-3.82611e-05 -1.89126e-05 0
7.50973e-05 -3.27957e-05 0
8.13549e-05 -5.1391e-05 0
3.40076e-05 -0.000155465 0
7.50973e-05 -3.27957e-05 0
8.40017e-05 -0.000156333 0
0.000125669 -7.10179e-05 0
7.50973e-05 -3.27957e-05 0
8.13549e-05 -5.1391e-05 0
0.000125669 -7.10179e-05 0
0.000148692 -4.83026e-05 0
8.40017e-05 -0.000156333 0
0.000125669 -7.10179e-05 0
0 0 0
0 0 0
0.000125669 -7.10179e-05 0
0.000148692 -4.83026e-05 0
0 0 0
0 0 0
-0.000213281 4.44798e-05 0
-0.000235084 -1.68292e-05 0
-3.82611e-05 -1.89126e-05 0
-4.95094e-05 -5.02706e-05 0
-0.000235084 -1.68292e-05 0
-0.000209599 -0.000103987 0
-4.95094e-05 -5.02706e-05 0
-4.40433e-05 -0.00012142 0
-3.82611e-05 -1.89126e-05 0
-4.95094e-05 -5.02706e-05 0
8.13549e-05 -5.1391e-05 0
4.96983e-05 -5.28001e-05 0
-4.95094e-05 -5.02706e-05 0
-4.40433e-05 -0.00012142 0
4.96983e-05 -5.28001e-05 0
-3.20696e-06 -8.06255e-05 0
8.13549e-05 -5.1391e-05 0
4.96983e-05 -5.28001e-05 0
0.000148692 -4.83026e-05 0
0.000108812 -2.0109e-05 0
4.96983e-05 -5.28001e-05 0
-3.20696e-06 -8.06255e-05 0
0.000108812 -2.0109e-05 0
3.19874e-05 -1.32741e-05 0
0.000148692 -4.83026e-05 0
0.000108812 -2.0109e-05 0
0 0 0
0 0 0
0.000108812 -2.0109e-05 0
3.19874e-05 -1.32741e-05 0
0 0 0
0 0 0
-0.000209599 -0.000103987 0
-0.000175876 -0.000232817 0
-4.40433e-05 -0.00012142 0
-5.87178e-05 -0.000179554 0
-0.000175876 -0.000232817 0
-0.000177648 -0.000205276 0
-5.87178e-05 -0.000179554 0
-0.000110028 -6.99464e-05 0
-4.40433e-05 -0.00012142 0
-5.87178e-05 -0.000179554 0
-3.20696e-06 -8.06255e-05 0
-7.15759e-05 -7.79841e-05 0
-5.87178e-05 -0.000179554 0
-0.000110028 -6.99464e-05 0
-7.15759e-05 -7.79841e-05 0
-0.000132347 6.60826e-05 0
-3.20696e-06 -8.06255e-05 0
-7.15759e-05 -7.79841e-05 0
3.19874e-05 -1.32741e-05 0
-5.11887e-05 1.17645e-05 0
-7.15759e-05 -7.79841e-05 0
-0.000132347 6.60826e-05 0
-5.11887e-05 1.17645e-05 0
-7.28083e-05 9.2e-05 0
3.19874e-05 -1.32741e-05 0
-5.11887e-05 1.17645e-05 0
0 0 0
0 0 0
-5.11887e-05 1.17645e-05 0
-7.28083e-05 9.2e-05 0
0 0 0
0 0 0
0 0 0
0 0 0
-0.000178729 -0.000272461 0
1.72963e-05 -2.37396e-05 0
0 0 0
0 0 0
1.72963e-05 -2.37396e-05 0
0 0 0
-0.000178729 -0.000272461 0
1.72963e-05 -2.37396e-05 0
-0.000898376 -0.000176284 0
-0.000669613 -0.000224057 0
1.72963e-05 -2.37396e-05 0
0 0 0
-0.000669613 -0.000224057 0
0 0 0
-0.000898376 -0.000176284 0
-0.000669613 -0.000224057 0
-0.00135316 0.000157932 0
-0.000479238 -0.000205137 0
-0.000669613 -0.000224057 0
0 0 0
-0.000479238 -0.000205137 0
0 0 0
-0.00135316 0.000157932 0
-0.000479238 -0.000205137 0
-0.000491011 -0.000189536 0
-0.000152063 -0.000105589 0
-0.000479238 -0.000205137 0
0 0 0
-0.000152063 -0.000105589 0
0 0 0
-0.000491011 -0.000189536 0
-0.000152063 -0.000105589 0
-0.000291264 -0.00029746 0
-0.000168764 -0.000101764 0
-0.000152063 -0.000105589 0
0 0 0
-0.000168764 -0.000101764 0
0 0 0
-0.000291264 -0.00029746 0
-0.000168764 -0.000101764 0
-0.000177648 -0.000205276 0
-0.000132896 -7.90161e-05 0
-0.000168764 -0.000101764 0
0 0 0
-0.000132896 -7.90161e-05 0
0 0 0
-0.000177648 -0.000205276 0
-0.000132896 -7.90161e-05 0
-0.000110028 -6.99464e-05 0
-0.000105331 6.60398e-06 0
-0.000132896 -7.90161e-05 0
0 0 0
-0.000105331 6.60398e-06 0
0 0 0
-0.000110028 -6.99464e-05 0
-0.000105331 6.60398e-06 0
-0.000132347 6.60826e-05 0
-0.000101626 7.16517e-05 0
-0.000105331 6.60398e-06 0
0 0 0
-0.000101626 7.16517e-05 0
0 0 0
-0.000132347 6.60826e-05 0
-0.000101626 7.16517e-05 0
-7.28083e-05 9.2e-05 0
-1.06278e-05 8.18252e-05 0
-0.000101626 7.16517e-05 0
0 0 0
-1.06278e-05 8.18252e-05 0
0 0 0
-7.28083e-05 9.2e-05 0
-1.06278e-05 8.18252e-05 0
0 0 0
0 0 0
-1.06278e-05 8.18252e-05 0
0 0 0
0 0 0
0 0 0
4.35563e-05 -0.000472596 0
0.000165143 0.000593468 0
0.00043345 -0.000228124 0
0.000415994 0.000373445 0
0.000165143 0.000593468 0
0.000193977 -0.000700028 0
0.000415994 0.000373445 0
0.000195631 -2.89866e-05 0
0.00043345 -0.000228124 0
0.000415994 0.000373445 0
4.21009e-05 5.93065e-07 0
0.000119325 3.63242e-05 0
0.000415994 0.000373445 0
0.000195631 -2.89866e-05 0
0.000119325 3.63242e-05 0
0.000197741 0.000374916 0
0.000193977 -0.000700028 0
-0.000203703 0.00131993 0
0.000195631 -2.89866e-05 0
0.000618266 0.00062467 0
-0.000203703 0.00131993 0
-0.000898376 -0.000176284 0
0.000618266 0.00062467 0
0.00160149 0.000154174 0
0.000195631 -2.89866e-05 0
0.000618266 0.00062467 0
0.000197741 0.000374916 0
-0.000474795 0.000275554 0
0.000618266 0.00062467 0
0.00160149 0.000154174 0
-0.000474795 0.000275554 0
-0.00135316 0.000157932 0
4.21009e-05 5.93065e-07 0
0.000119325 3.63242e-05 0
0.000339272 4.74879e-05 0
0.000115186 0.000251689 0
0.000119325 3.63242e-05 0
0.000197741 0.000374916 0
0.000115186 0.000251689 0
5.86282e-05 0.000132542 0
0.000339272 4.74879e-05 0
0.000115186 0.000251689 0
-0.000346254 6.45862e-05 0
-0.000397624 0.000474951 0
0.000115186 0.000251689 0
5.86282e-05 0.000132542 0
-0.000397624 0.000474951 0
-0.000437509 -0.000221408 0
0.000197741 0.000374916 0
-0.000474795 0.000275554 0
5.86282e-05 0.000132542 0
0.000485813 0.00075725 0
-0.000474795 0.000275554 0
-0.00135316 0.000157932 0
0.000485813 0.00075725 0
0.000831163 -0.000104413 0
5.86282e-05 0.000132542 0
0.000485813 0.00075725 0
-0.000437509 -0.000221408 0
-0.00050743 0.000649605 0
0.000485813 0.00075725 0
0.000831163 -0.000104413 0
-0.00050743 0.000649605 0
-0.000491011 -0.000189536 0
SCALARS pressure double 1
LOOKUP_TABLE default