# vtk DataFile Version 3.0
#This file was generated by the deal.II library on 2026/4/15 at 13:17:37
ASCII
DATASET UNSTRUCTURED_GRID

POINTS 60168 double
0 0 0
0.10101 0 0
0 0.125 0
0.10101 0.125 0
0.10101 0 0
0.20202 0 0
0.10101 0.125 0
0.20202 0.125 0
0.10101 0.125 0
0.20202 0.125 0
0.10101 0.25 0
0.20202 0.25 0
0.20202 0 0
0.30303 0 0
0.20202 0.125 0
0.30303 0.125 0
0.20202 0.125 0
0.30303 0.125 0
0.20202 0.25 0
0.30303 0.25 0
0.30303 0 0
0.40404 0 0
0.30303 0.125 0
0.40404 0.125 0
0.30303 0.125 0
0.40404 0.125 0
0.30303 0.25 0
0.40404 0.25 0
0.40404 0 0
0.505051 0 0
0.40404 0.125 0
0.505051 0.125 0
0.40404 0.125 0
0.505051 0.125 0
0.40404 0.25 0
0.505051 0.25 0
0.505051 0 0
0.606061 0 0
0.505051 0.125 0
0.606061 0.125 0
0.505051 0.125 0
0.606061 0.125 0
0.505051 0.25 0
0.606061 0.25 0
0.606061 0 0
0.707071 0 0
0.606061 0.125 0
0.707071 0.125 0
0.606061 0.125 0
0.707071 0.125 0
0.606061 0.25 0
0.707071 0.25 0
0.707071 0 0
0.808081 0 0
0.707071 0.125 0
0.808081 0.125 0
0.707071 0.125 0
0.808081 0.125 0
0.707071 0.25 0
0.808081 0.25 0
0.808081 0 0
0.909091 0 0
0.808081 0.125 0
0.909091 0.125 0
0.808081 0.125 0
0.909091 0.125 0
0.808081 0.25 0
0.909091 0.25 0
0.909091 0 0
1.0101 0 0
0.909091 0.125 0
1.0101 0.125 0
0.909091 0.125 0
1.0101 0.125 0
0.909091 0.25 0
1.0101 0.25 0
1.0101 0 0
1.11111 0 0
1.0101 0.125 0
1.11111 0.125 0
1.0101 0.125 0
1.11111 0.125 0
1.0101 0.25 0
1.11111 0.25 0
1.11111 0 0
1.21212 0 0
1.11111 0.125 0
1.21212 0.125 0
1.11111 0.125 0
1.21212 0.125 0
1.11111 0.25 0
1.21212 0.25 0
1.21212 0 0
1.31313 0 0
1.21212 0.125 0
1.31313 0.125 0
1.21212 0.125 0
1.31313 0.125 0
1.21212 0.25 0
1.31313 0.25 0
1.31313 0 0
1.41414 0 0
1.31313 0.125 0
1.41414 0.125 0
1.31313 0.125 0
1.41414 0.125 0
1.31313 0.25 0
1.41414 0.25 0
1.41414 0 0
1.51515 0 0
1.41414 0.125 0
1.51515 0.125 0
1.41414 0.125 0
1.51515 0.125 0
1.41414 0.25 0
1.51515 0.25 0
1.51515 0 0
1.61616 0 0
1.51515 0.125 0
1.61616 0.125 0
1.51515 0.125 0
1.61616 0.125 0
1.51515 0.25 0
1.61616 0.25 0
1.61616 0 0
1.71717 0 0
1.61616 0.125 0
1.71717 0.125 0
1.61616 0.125 0
1.71717 0.125 0
1.61616 0.25 0
1.71717 0.25 0
1.71717 0 0
1.81818 0 0
1.71717 0.125 0
1.81818 0.125 0
1.71717 0.125 0
1.81818 0.125 0
1.71717 0.25 0
1.81818 0.25 0
1.81818 0 0
1.91919 0 0
1.81818 0.125 0
1.91919 0.125 0
1.81818 0.125 0
1.91919 0.125 0
1.81818 0.25 0
1.91919 0.25 0
1.91919 0 0
2.0202 0 0
1.91919 0.125 0
2.0202 0.125 0
1.91919 0.125 0
2.0202 0.125 0
1.91919 0.25 0
2.0202 0.25 0
2.0202 0 0
2.12121 0 0
2.0202 0.125 0
2.12121 0.125 0
2.0202 0.125 0
2.12121 0.125 0
2.0202 0.25 0
2.12121 0.25 0
2.12121 0 0
2.22222 0 0
2.12121 0.125 0
2.22222 0.125 0
2.12121 0.125 0
2.22222 0.125 0
2.12121 0.25 0
2.22222 0.25 0
2.22222 0 0
2.32323 0 0
2.22222 0.125 0
2.32323 0.125 0
2.22222 0.125 0
2.32323 0.125 0
2.22222 0.25 0
2.32323 0.25 0
2.32323 0 0
2.42424 0 0
2.32323 0.125 0
2.42424 0.125 0
2.32323 0.125 0
2.42424 0.125 0
2.32323 0.25 0
2.42424 0.25 0
2.42424 0 0
2.52525 0 0
2.42424 0.125 0
2.52525 0.125 0
2.42424 0.125 0
2.52525 0.125 0
2.42424 0.25 0
2.52525 0.25 0
2.52525 0 0
2.62626 0 0
2.52525 0.125 0
2.62626 0.125 0
2.52525 0.125 0
2.62626 0.125 0
2.52525 0.25 0
2.62626 0.25 0
2.62626 0 0
2.72727 0 0
2.62626 0.125 0
2.72727 0.125 0
2.62626 0.125 0
2.72727 0.125 0
2.62626 0.25 0
2.72727 0.25 0
2.72727 0 0
2.82828 0 0
2.72727 0.125 0
2.82828 0.125 0
2.72727 0.125 0
2.82828 0.125 0
2.72727 0.25 0
2.82828 0.25 0
2.82828 0 0
2.92929 0 0
2.82828 0.125 0
2.92929 0.125 0
2.82828 0.125 0
2.92929 0.125 0
2.82828 0.25 0
2.92929 0.25 0
2.92929 0 0
3.0303 0 0
2.92929 0.125 0
3.0303 0.125 0
2.92929 0.125 0
3.0303 0.125 0
2.92929 0.25 0
3.0303 0.25 0
3.0303 0 0
3.13131 0 0
3.0303 0.125 0
3.13131 0.125 0
3.0303 0.125 0
3.13131 0.125 0
3.0303 0.25 0
3.13131 0.25 0
3.13131 0 0
3.23232 0 0
3.13131 0.125 0
3.23232 0.125 0
3.13131 0.125 0
3.23232 0.125 0
3.13131 0.25 0
3.23232 0.25 0
3.23232 0 0
3.33333 0 0
3.23232 0.125 0
3.33333 0.125 0
3.23232 0.125 0
3.33333 0.125 0
3.23232 0.25 0
3.33333 0.25 0
3.33333 0 0
3.43434 0 0
3.33333 0.125 0
3.43434 0.125 0
3.33333 0.125 0
3.43434 0.125 0
3.33333 0.25 0
3.43434 0.25 0
3.43434 0 0
3.53535 0 0
3.43434 0.125 0
3.53535 0.125 0
3.43434 0.125 0
3.53535 0.125 0
3.43434 0.25 0
3.53535 0.25 0
3.53535 0 0
3.63636 0 0
3.53535 0.125 0
3.63636 0.125 0
3.53535 0.125 0
3.63636 0.125 0
3.53535 0.25 0
3.63636 0.25 0
3.63636 0 0
3.73737 0 0
3.63636 0.125 0
3.73737 0.125 0
3.63636 0.125 0
3.73737 0.125 0
3.63636 0.25 0
3.73737 0.25 0
3.73737 0 0
3.83838 0 0
3.73737 0.125 0
3.83838 0.125 0
3.73737 0.125 0
3.83838 0.125 0
3.73737 0.25 0
3.83838 0.25 0
3.83838 0 0
3.93939 0 0
3.83838 0.125 0
3.93939 0.125 0
3.83838 0.125 0
3.93939 0.125 0
3.83838 0.25 0
3.93939 0.25 0
3.93939 0 0
4.0404 0 0
3.93939 0.125 0
4.0404 0.125 0
3.93939 0.125 0
4.0404 0.125 0
3.93939 0.25 0
4.0404 0.25 0
4.0404 0 0
4.14141 0 0
4.0404 0.125 0
4.14141 0.125 0
4.0404 0.125 0
4.14141 0.125 0
4.0404 0.25 0
4.14141 0.25 0
4.14141 0 0
4.24242 0 0
4.14141 0.125 0
4.24242 0.125 0
4.14141 0.125 0
4.24242 0.125 0
4.14141 0.25 0
4.24242 0.25 0
4.24242 0 0
4.34343 0 0
4.24242 0.125 0
4.34343 0.125 0
4.24242 0.125 0
4.34343 0.125 0
4.24242 0.25 0
4.34343 0.25 0
4.34343 0 0
4.44444 0 0
4.34343 0.125 0
4.44444 0.125 0
4.34343 0.125 0
4.44444 0.125 0
4.34343 0.25 0
4.44444 0.25 0
4.44444 0 0
4.54545 0 0
4.44444 0.125 0
4.54545 0.125 0
4.44444 0.125 0
4.54545 0.125 0
4.44444 0.25 0
4.54545 0.25 0
4.54545 0 0
4.64646 0 0
4.54545 0.125 0
4.64646 0.125 0
4.54545 0.125 0
4.64646 0.125 0
4.54545 0.25 0
4.64646 0.25 0
4.64646 0 0
4.74747 0 0
4.64646 0.125 0
4.74747 0.125 0
4.64646 0.125 0
4.74747 0.125 0
4.64646 0.25 0
4.74747 0.25 0
4.74747 0 0
4.84848 0 0
4.74747 0.125 0
4.84848 0.125 0
4.74747 0.125 0
4.84848 0.125 0
4.74747 0.25 0
4.84848 0.25 0
4.84848 0 0
4.94949 0 0
4.84848 0.125 0
4.94949 0.125 0
4.84848 0.125 0
4.94949 0.125 0
4.84848 0.25 0
4.94949 0.25 0
4.94949 0 0
5.05051 0 0
4.94949 0.125 0
5.05051 0.125 0
4.94949 0.125 0
5.05051 0.125 0
4.94949 0.25 0
5.05051 0.25 0
5.05051 0 0
5.15152 0 0
5.05051 0.125 0
5.15152 0.125 0
5.05051 0.125 0
5.15152 0.125 0
5.05051 0.25 0
5.15152 0.25 0
5.15152 0 0
5.25253 0 0
5.15152 0.125 0
5.25253 0.125 0
5.15152 0.125 0
5.25253 0.125 0
5.15152 0.25 0
5.25253 0.25 0
5.25253 0 0
5.35354 0 0
5.25253 0.125 0
5.35354 0.125 0
5.25253 0.125 0
5.35354 0.125 0
5.25253 0.25 0
5.35354 0.25 0
5.35354 0 0
5.45455 0 0
5.35354 0.125 0
5.45455 0.125 0
5.35354 0.125 0
5.45455 0.125 0
5.35354 0.25 0
5.45455 0.25 0
5.45455 0 0
5.55556 0 0
5.45455 0.125 0
5.55556 0.125 0
5.45455 0.125 0
5.55556 0.125 0
5.45455 0.25 0
5.55556 0.25 0
5.55556 0 0
5.65657 0 0
5.55556 0.125 0
5.65657 0.125 0
5.55556 0.125 0
5.65657 0.125 0
5.55556 0.25 0
5.65657 0.25 0
5.65657 0 0
5.75758 0 0
5.65657 0.125 0
5.75758 0.125 0
5.65657 0.125 0
5.75758 0.125 0
5.65657 0.25 0
5.75758 0.25 0
5.75758 0 0
5.85859 0 0
5.75758 0.125 0
5.85859 0.125 0
5.75758 0.125 0
5.85859 0.125 0
5.75758 0.25 0
5.85859 0.25 0
5.85859 0 0
5.9596 0 0
5.85859 0.125 0
5.9596 0.125 0
5.85859 0.125 0
5.9596 0.125 0
5.85859 0.25 0
5.9596 0.25 0
5.9596 0 0
6.06061 0 0
5.9596 0.125 0
6.06061 0.125 0
5.9596 0.125 0
6.06061 0.125 0
5.9596 0.25 0
6.06061 0.25 0
6.06061 0 0
6.16162 0 0
6.06061 0.125 0
6.16162 0.125 0
6.06061 0.125 0
6.16162 0.125 0
6.06061 0.25 0
6.16162 0.25 0
6.16162 0 0
6.26263 0 0
6.16162 0.125 0
6.26263 0.125 0
6.16162 0.125 0
6.26263 0.125 0
6.16162 0.25 0
6.26263 0.25 0
6.26263 0 0
6.36364 0 0
6.26263 0.125 0
6.36364 0.125 0
6.26263 0.125 0
6.36364 0.125 0
6.26263 0.25 0
6.36364 0.25 0
6.36364 0 0
6.46465 0 0
6.36364 0.125 0
6.46465 0.125 0
6.36364 0.125 0
6.46465 0.125 0
6.36364 0.25 0
6.46465 0.25 0
6.46465 0 0
6.56566 0 0
6.46465 0.125 0
6.56566 0.125 0
6.46465 0.125 0
6.56566 0.125 0
6.46465 0.25 0
6.56566 0.25 0
6.56566 0 0
6.66667 0 0
6.56566 0.125 0
6.66667 0.125 0
6.56566 0.125 0
6.66667 0.125 0
6.56566 0.25 0
6.66667 0.25 0
6.66667 0 0
6.76768 0 0
6.66667 0.125 0
6.76768 0.125 0
6.66667 0.125 0
6.76768 0.125 0
6.66667 0.25 0
6.76768 0.25 0
6.76768 0 0
6.86869 0 0
6.76768 0.125 0
6.86869 0.125 0
6.76768 0.125 0
6.86869 0.125 0
6.76768 0.25 0
6.86869 0.25 0
6.86869 0 0
6.9697 0 0
6.86869 0.125 0
6.9697 0.125 0
6.86869 0.125 0
6.9697 0.125 0
6.86869 0.25 0
6.9697 0.25 0
6.9697 0 0
7.07071 0 0
6.9697 0.125 0
7.07071 0.125 0
6.9697 0.125 0
7.07071 0.125 0
6.9697 0.25 0
7.07071 0.25 0
7.07071 0 0
7.17172 0 0
7.07071 0.125 0
7.17172 0.125 0
7.07071 0.125 0
7.17172 0.125 0
7.07071 0.25 0
7.17172 0.25 0
7.17172 0 0
7.27273 0 0
7.17172 0.125 0
7.27273 0.125 0
7.17172 0.125 0
7.27273 0.125 0
7.17172 0.25 0
7.27273 0.25 0
7.27273 0 0
7.37374 0 0
7.27273 0.125 0
7.37374 0.125 0
7.27273 0.125 0
7.37374 0.125 0
7.27273 0.25 0
7.37374 0.25 0
7.37374 0 0
7.47475 0 0
7.37374 0.125 0
7.47475 0.125 0
7.37374 0.125 0
7.47475 0.125 0
7.37374 0.25 0
7.47475 0.25 0
7.47475 0 0
7.57576 0 0
7.47475 0.125 0
7.57576 0.125 0
7.47475 0.125 0
7.57576 0.125 0
7.47475 0.25 0
7.57576 0.25 0
7.57576 0 0
7.67677 0 0
7.57576 0.125 0
7.67677 0.125 0
7.57576 0.125 0
7.67677 0.125 0
7.57576 0.25 0
7.67677 0.25 0
7.67677 0 0
7.77778 0 0
7.67677 0.125 0
7.77778 0.125 0
7.67677 0.125 0
7.77778 0.125 0
7.67677 0.25 0
7.77778 0.25 0
7.77778 0 0
7.87879 0 0
7.77778 0.125 0
7.87879 0.125 0
7.77778 0.125 0
7.87879 0.125 0
7.77778 0.25 0
7.87879 0.25 0
7.87879 0 0
7.9798 0 0
7.87879 0.125 0
7.9798 0.125 0
7.87879 0.125 0
7.9798 0.125 0
7.87879 0.25 0
7.9798 0.25 0
7.9798 0 0
8.08081 0 0
7.9798 0.125 0
8.08081 0.125 0
7.9798 0.125 0
8.08081 0.125 0
7.9798 0.25 0
8.08081 0.25 0
8.08081 0 0
8.18182 0 0
8.08081 0.125 0
8.18182 0.125 0
8.08081 0.125 0
8.18182 0.125 0
8.08081 0.25 0
8.18182 0.25 0
8.18182 0 0
8.28283 0 0
8.18182 0.125 0
8.28283 0.125 0
8.18182 0.125 0
8.28283 0.125 0
8.18182 0.25 0
8.28283 0.25 0
8.28283 0 0
8.38384 0 0
8.28283 0.125 0
8.38384 0.125 0
8.28283 0.125 0
8.38384 0.125 0
8.28283 0.25 0
8.38384 0.25 0
8.38384 0 0
8.48485 0 0
8.38384 0.125 0
8.48485 0.125 0
8.38384 0.125 0
8.48485 0.125 0
8.38384 0.25 0
8.48485 0.25 0
8.48485 0 0
8.58586 0 0
[...]
POINT_DATA 60168
VECTORS velocity double
0 0 0
0 0 0
0 0 0
0 0 0
0 0 0
0 0 0
0 0 0
0 0 0
0 0 0
0 0 0
0 0 0
0 0 0
0 0 0
0 0 0
0 0 0
0 0 0
0 0 0
0 0 0
0 0 0
0 0 0
0 0 0
0 0 0
0 0 0
0 0 0
0 0 0
0 0 0
0 0 0
0 0 0
0 0 0
0 0 0
0 0 0
0 0 0
0 0 0
0 0 0
0 0 0
0 0 0
0 0 0
0 0 0
0 0 0
0 0 0
0 0 0
0 0 0
0 0 0
0 0 0
0 0 0
0 0 0
0 0 0
0 0 0
0 0 0
0 0 0
0 0 0
0 0 0
0 0 0
0 0 0
0 0 0
0 0 0
0 0 0
0 0 0
0 0 0
0 0 0
0 0 0
0 0 0
0 0 0
0 0 0
0 0 0
0 0 0
0 0 0
0 0 0
0 0 0
0 0 0
0 0 0
0 0 0
0 0 0
0 0 0
0 0 0
0 0 0
0 0 0
0 0 0
0 0 0
0 0 0
0 0 0
0 0 0
0 0 0
0 0 0
0 0 0
0 0 0
0 0 0
0 0 0
0 0 0
0 0 0
0 0 0
0 0 0
0 0 0
0 0 0
0 0 0
0 0 0
0 0 0
0 0 0
0 0 0
0 0 0
0 0 0
0 0 0
0 0 0
0 0 0
0 0 0
0 0 0
0 0 0
0 0 0
0 0 0
0 0 0
0 0 0
0 0 0
0 0 0
0 0 0
0 0 0
0 0 0
0 0 0
0 0 0
0 0 0
0 0 0
0 0 0
0 0 0
0 0 0
0 0 0
0 0 0
0 0 0
0 0 0
0 0 0
0 0 0
0 0 0
0 0 0
0 0 0
0 0 0
0 0 0
0 0 0
0 0 0
0 0 0
0 0 0
0 0 0
0 0 0
0 0 0
0 0 0
0 0 0
0 0 0
0 0 0
0 0 0
0 0 0
0 0 0
0 0 0
0 0 0
0 0 0
0 0 0
0 0 0
0 0 0
0 0 0
0 0 0
0 0 0
0 0 0
0 0 0
0 0 0
0 0 0
0 0 0
0 0 0
0 0 0
0 0 0
0 0 0
0 0 0
0 0 0
0 0 0
0 0 0
0 0 0
0 0 0
0 0 0
0 0 0
0 0 0
0 0 0
0 0 0
0 0 0
0 0 0
0 0 0
0 0 0
0 0 0
0 0 0
0 0 0
0 0 0
0 0 0
0 0 0
0 0 0
0 0 0
0 0 0
0 0 0
0 0 0
0 0 0
0 0 0
0 0 0
0 0 0
0 0 0
0 0 0
0 0 0
0 0 0
0 0 0
0 0 0
0 0 0
0 0 0
0 0 0
0 0 0
0 0 0
0 0 0
0 0 0
0 0 0
0 0 0
0 0 0
0 0 0
0 0 0
0 0 0
0 0 0
0 0 0
0 0 0
0 0 0
0 0 0
0 0 0
0 0 0
0 0 0
0 0 0
0 0 0
0 0 0
0 0 0
0 0 0
0 0 0
0 0 0
0 0 0
0 0 0
0 0 0
0 0 0
0 0 0
0 0 0
0 0 0
0 0 0
0 0 0
0 0 0
0 0 0
0 0 0
0 0 0
0 0 0
0 0 0
0 0 0
0 0 0
0 0 0
0 0 0
0 0 0
0 0 0
0 0 0
0 0 0
0 0 0
0 0 0
0 0 0
0 0 0
0 0 0
0 0 0
0 0 0
0 0 0
0 0 0
0 0 0
0 0 0
0 0 0
0 0 0
0 0 0
0 0 0
0 0 0
0 0 0
0 0 0
0 0 0
0 0 0
0 0 0
0 0 0
0 0 0
0 0 0
0 0 0
0 0 0
0 0 0
0 0 0
0 0 0
0 0 0
0 0 0
0 0 0
0 0 0
0 0 0
0 0 0
0 0 0
0 0 0
0 0 0
0 0 0
0 0 0
0 0 0
0 0 0
0 0 0
0 0 0
0 0 0
0 0 0
0 0 0
0 0 0
0 0 0
0 0 0
0 0 0
0 0 0
0 0 0
0 0 0
0 0 0
0 0 0
0 0 0
0 0 0
0 0 0
0 0 0
0 0 0
0 0 0
0 0 0
0 0 0
0 0 0
0 0 0
0 0 0
0 0 0
0 0 0
0 0 0
0 0 0
0 0 0
0 0 0
0 0 0
0 0 0
0 0 0
0 0 0
0 0 0
0 0 0
0 0 0
0 0 0
0 0 0
0 0 0
0 0 0
0 0 0
0 0 0
0 0 0
0 0 0
0 0 0
0 0 0
0 0 0
0 0 0
0 0 0
0 0 0
0 0 0
0 0 0
0 0 0
0 0 0
0 0 0
0 0 0
0 0 0
0 0 0
0 0 0
0 0 0
0 0 0
0 0 0
0 0 0
0 0 0
0 0 0
0 0 0
0 0 0
0 0 0
0 0 0
0 0 0
0 0 0
0 0 0
0 0 0
0 0 0
0 0 0
0 0 0
0 0 0
0 0 0
0 0 0
0 0 0
0 0 0
0 0 0
0 0 0
0 0 0
0 0 0
0 0 0
0 0 0
0 0 0
0 0 0
0 0 0
0 0 0
0 0 0
0 0 0
0 0 0
0 0 0
0 0 0
0 0 0
0 0 0
0 0 0
0 0 0
0 0 0
0 0 0
0 0 0
0 0 0
0 0 0
0 0 0
0 0 0
0 0 0
0 0 0
0 0 0
0 0 0
0 0 0
0 0 0
0 0 0
0 0 0
0 0 0
0 0 0
0 0 0
0 0 0
0 0 0
0 0 0
0 0 0
0 0 0
0 0 0
0 0 0
0 0 0
0 0 0
0 0 0
0 0 0
0 0 0
0 0 0
0 0 0
0 0 0
0 0 0
0 0 0
0 0 0
0 0 0
0 0 0
0 0 0
0 0 0
0 0 0
0 0 0
0 0 0
0 0 0
0 0 0
0 0 0
0 0 0
0 0 0
0 0 0
0 0 0
0 0 0
0 0 0
0 0 0
0 0 0
0 0 0
0 0 0
0 0 0
0 0 0
0 0 0
0 0 0
0 0 0
0 0 0
0 0 0
0 0 0
0 0 0
0 0 0
0 0 0
0 0 0
0 0 0
0 0 0
0 0 0
0 0 0
0 0 0
0 0 0
0 0 0
0 0 0
0 0 0
0 0 0
0 0 0
0 0 0
0 0 0
0 0 0
0 0 0
0 0 0
0 0 0
0 0 0
0 0 0
0 0 0
0 0 0
0 0 0
0 0 0
0 0 0
0 0 0
0 0 0
0 0 0
0 0 0
0 0 0
0 0 0
0 0 0
0 0 0
0 0 0
0 0 0
0 0 0
0 0 0
0 0 0
0 0 0
0 0 0
0 0 0
0 0 0
0 0 0
0 0 0
0 0 0
0 0 0
0 0 0
0 0 0
0 0 0
0 0 0
0 0 0
0 0 0
0 0 0
0 0 0
0 0 0
0 0 0
0 0 0
0 0 0
0 0 0
0 0 0
0 0 0
0 0 0
0 0 0
0 0 0
0 0 0
0 0 0
0 0 0
0 0 0
0 0 0
0 0 0
0 0 0
0 0 0
0 0 0
0 0 0
0 0 0
0 0 0
0 0 0
0 0 0
0 0 0
0 0 0
0 0 0
0 0 0
0 0 0
0 0 0
0 0 0
0 0 0
0 0 0
0 0 0
0 0 0
0 0 0
0 0 0
0 0 0
0 0 0
0 0 0
0 0 0
0 0 0
0 0 0
0 0 0
0 0 0
0 0 0
0 0 0
0 0 0
0 0 0
0 0 0
0 0 0
0 0 0
0 0 0
0 0 0
0 0 0
0 0 0
0 0 0
0 0 0
0 0 0
0 0 0
0 0 0
0 0 0
0 0 0
0 0 0
0 0 0
0 0 0
0 0 0
0 0 0
0 0 0
0 0 0
0 0 0
0 0 0
0 0 0
0 0 0
0 0 0
0 0 0
0 0 0
0 0 0
0 0 0
0 0 0
0 0 0
0 0 0
0 0 0
0 0 0
0 0 0
0 0 0
0 0 0
0 0 0
0 0 0
0 0 0
0 0 0
0 0 0
0 0 0
0 0 0
0 0 0
0 0 0
0 0 0
0 0 0
0 0 0
0 0 0
0 0 0
0 0 0
0 0 0
0 0 0
0 0 0
0 0 0
0 0 0
0 0 0
0 0 0
0 0 0
0 0 0
0 0 0
0 0 0
0 0 0
0 0 0
0 0 0
0 0 0
0 0 0
0 0 0
0 0 0
0 0 0
0 0 0
0 0 0
0 0 0
0 0 0
0 0 0
0 0 0
0 0 0
0 0 0
0 0 0
0 0 0
0 0 0
0 0 0
0 0 0
0 0 0
0 0 0
0 0 0
0 0 0
0 0 0
0 0 0
0 0 0
0 0 0
0 0 0
0 0 0
0 0 0
0 0 0
0 0 0
0 0 0
0 0 0
0 0 0
0 0 0
0 0 0
0 0 0
0 0 0
0 0 0
0 0 0
0 0 0
0 0 0
0 0 0
0 0 0
0 0 0
0 0 0
0 0 0
0 0 0
0 0 0
0 0 0
0 0 0
0 0 0
0 0 0
0 0 0
0 0 0
0 0 0
0 0 0
0 0 0
0 0 0
0 0 0
0 0 0
0 0 0
0 0 0
0 0 0
0 0 0
0 0 0
0 0 0
0 0 0
0 0 0
0 0 0
0 0 0
0 0 0
0 0 0
0 0 0
0 0 0
0 0 0
0 0 0
0 0 0
0 0 0
0 0 0
0 0 0
0 0 0
0 0 0
0 0 0
0 0 0
0 0 0
0 0 0
0 0 0
0 0 0
0 0 0
0 0 0
0 0 0
0 0 0
0 0 0
0 0 0
0 0 0
0 0 0
0 0 0
0 0 0
0 0 0
0 0 0
0 0 0
0 0 0
0 0 0
0 0 0
0 0 0
0 0 0
0 0 0
0 0 0
0 0 0
0 0 0
0 0 0
0 0 0
0 0 0
0 0 0
0 0 0
0 0 0
0 0 0
0 0 0
0 0 0
0 0 0
0 0 0
0 0 0
0 0 0
0 0 0
0 0 0
0 0 0
0 0 0
0 0 0
0 0 0
0 0 0
0 0 0
0 0 0
0 0 0
0 0 0
0 0 0
0 0 0
0 0 0
0 0 0
0 0 0
0 0 0
0 0 0
0 0 0
0 0 0
0 0 0
0 0 0
0 0 0
0 0 0
0 0 0
0 0 0
0 0 0
0 0 0
0 0 0
0 0 0
3.45679 0 0
3.45679 4.17642e-16 0
4.44444 0 0
4.44444 6.42092e-16 0
4.44444 0 0
4.44444 6.42092e-16 0
4.93827 0 0
4.93827 -3.52379e-16 0
4.93827 0 0
4.93827 -3.52379e-16 0
4.93827 0 0
4.93827 4.96652e-16 0
3.45679 4.17642e-16 0
3.45679 3.50582e-17 0
4.44444 6.42092e-16 0
4.44444 -6.04158e-17 0
4.44444 6.42092e-16 0
4.44444 -6.04158e-17 0
4.93827 -3.52379e-16 0
4.93827 1.10277e-15 0
4.93827 -3.52379e-16 0
4.93827 1.10277e-15 0
4.93827 4.96652e-16 0
4.93827 3.19318e-16 0
3.45679 3.50582e-17 0
3.45679 1.23035e-16 0
4.44444 -6.04158e-17 0
4.44444 5.29335e-16 0
4.44444 -6.04158e-17 0
4.44444 5.29335e-16 0
4.93827 1.10277e-15 0
4.93827 -1.0803e-15 0
4.93827 1.10277e-15 0
4.93827 -1.0803e-15 0
4.93827 3.19318e-16 0
4.93827 -2.24641e-16 0
4.93827 3.19318e-16 0
4.93827 -2.24641e-16 0
4.44444 7.1539e-16 0
4.44444 1.93289e-16 0
3.45679 1.23035e-16 0
3.45679 -3.76889e-16 0
4.44444 5.29335e-16 0
4.44444 -2.96341e-16 0
4.44444 5.29335e-16 0
4.44444 -2.96341e-16 0
4.93827 -1.0803e-15 0
4.93827 7.00652e-16 0
4.93827 -1.0803e-15 0
4.93827 7.00652e-16 0
4.93827 -2.24641e-16 0
4.93827 -5.66627e-16 0
4.93827 -2.24641e-16 0
4.93827 -5.66627e-16 0
4.44444 1.93289e-16 0
4.44444 -1.56686e-16 0
3.45679 -3.76889e-16 0
3.45679 -2.93479e-16 0
4.44444 -2.96341e-16 0
4.44444 1.83561e-16 0
4.44444 -2.96341e-16 0
4.44444 1.83561e-16 0
4.93827 7.00652e-16 0
4.93827 -1.44096e-16 0
4.93827 7.00652e-16 0
4.93827 -1.44096e-16 0
4.93827 -5.66627e-16 0
4.93827 3.5814e-16 0
4.93827 -5.66627e-16 0
4.93827 3.5814e-16 0
4.44444 -1.56686e-16 0
4.44444 -3.51463e-16 0
3.45679 -2.93479e-16 0
3.45679 2.09603e-16 0
4.44444 1.83561e-16 0
4.44444 -1.82149e-16 0
4.44444 1.83561e-16 0
4.44444 -1.82149e-16 0
4.93827 -1.44096e-16 0
4.93827 -3.20959e-17 0
4.93827 -1.44096e-16 0
4.93827 -3.20959e-17 0
4.93827 3.5814e-16 0
4.93827 8.94128e-17 0
4.93827 3.5814e-16 0
4.93827 8.94128e-17 0
4.44444 -3.51463e-16 0
4.44444 5.87282e-16 0
3.45679 2.09603e-16 0
3.45679 4.92671e-17 0
4.44444 -1.82149e-16 0
4.44444 2.06203e-16 0
4.44444 -1.82149e-16 0
4.44444 2.06203e-16 0
4.93827 -3.20959e-17 0
4.93827 4.61858e-16 0
4.93827 -3.20959e-17 0
4.93827 4.61858e-16 0
4.93827 8.94128e-17 0
4.93827 2.30262e-16 0
4.93827 8.94128e-17 0
4.93827 2.30262e-16 0
4.44444 5.87282e-16 0
4.44444 2.6434e-16 0
3.45679 4.92671e-17 0
3.45679 6.63474e-17 0
4.44444 2.06203e-16 0
4.44444 2.1209e-17 0
4.44444 2.06203e-16 0
4.44444 2.1209e-17 0
4.93827 4.61858e-16 0
4.93827 4.1452e-17 0
4.93827 4.61858e-16 0
4.93827 4.1452e-17 0
4.93827 2.30262e-16 0
4.93827 4.53573e-16 0
4.93827 2.30262e-16 0
4.93827 4.53573e-16 0
4.44444 2.6434e-16 0
4.44444 1.0129e-16 0
3.45679 6.63474e-17 0
3.45679 -2.27119e-16 0
4.44444 2.1209e-17 0
4.44444 -6.0118e-16 0
4.44444 2.1209e-17 0
4.44444 -6.0118e-16 0
4.93827 4.1452e-17 0
4.93827 3.46972e-16 0
4.93827 4.1452e-17 0
4.93827 3.46972e-16 0
4.93827 4.53573e-16 0
4.93827 6.084e-16 0
4.93827 4.53573e-16 0
4.93827 6.084e-16 0
4.44444 1.0129e-16 0
4.44444 -8.14581e-17 0
3.45679 -2.27119e-16 0
3.45679 2.39785e-16 0
4.44444 -6.0118e-16 0
4.44444 1.7272e-16 0
4.44444 -6.0118e-16 0
4.44444 1.7272e-16 0
4.93827 3.46972e-16 0
4.93827 3.45318e-16 0
4.93827 3.46972e-16 0
4.93827 3.45318e-16 0
4.93827 6.084e-16 0
4.93827 -2.92979e-16 0
4.93827 6.084e-16 0
4.93827 -2.92979e-16 0
4.44444 -8.14581e-17 0
4.44444 4.38056e-16 0
3.45679 2.39785e-16 0
3.45679 3.67617e-16 0
4.44444 1.7272e-16 0
4.44444 2.5828e-16 0
4.44444 1.7272e-16 0
4.44444 2.5828e-16 0
4.93827 3.45318e-16 0
4.93827 -7.15252e-16 0
4.93827 3.45318e-16 0
4.93827 -7.15252e-16 0
4.93827 -2.92979e-16 0
4.93827 8.18197e-18 0
4.93827 -2.92979e-16 0
4.93827 8.18197e-18 0
4.44444 4.38056e-16 0
4.44444 2.33931e-16 0
3.45679 3.67617e-16 0
3.45679 1.71147e-16 0
4.44444 2.5828e-16 0
4.44444 -3.99613e-16 0
4.44444 2.5828e-16 0
4.44444 -3.99613e-16 0
4.93827 -7.15252e-16 0
4.93827 -5.55561e-16 0
4.93827 -7.15252e-16 0
4.93827 -5.55561e-16 0
4.93827 8.18197e-18 0
4.93827 4.7491e-16 0
4.93827 8.18197e-18 0
4.93827 4.7491e-16 0
4.44444 2.33931e-16 0
4.44444 1.68696e-16 0
4.44444 2.33931e-16 0
4.44444 1.68696e-16 0
3.45679 7.05381e-17 0
3.45679 2.55756e-16 0
3.45679 1.71147e-16 0
3.45679 -1.24183e-16 0
4.44444 -3.99613e-16 0
4.44444 9.16054e-17 0
4.44444 -3.99613e-16 0
4.44444 9.16054e-17 0
4.93827 -5.55561e-16 0
4.93827 -8.9769e-16 0
4.93827 -5.55561e-16 0
4.93827 -8.9769e-16 0
4.93827 4.7491e-16 0
4.93827 -1.3345e-16 0
4.93827 4.7491e-16 0
4.93827 -1.3345e-16 0
4.44444 1.68696e-16 0
4.44444 1.69735e-16 0
4.44444 1.68696e-16 0
4.44444 1.69735e-16 0
3.45679 2.55756e-16 0
3.45679 1.49028e-16 0
3.45679 -1.24183e-16 0
3.45679 6.06351e-16 0
4.44444 9.16054e-17 0
4.44444 -7.73032e-16 0
4.44444 9.16054e-17 0
4.44444 -7.73032e-16 0
4.93827 -8.9769e-16 0
4.93827 -4.71661e-16 0
4.93827 -8.9769e-16 0
4.93827 -4.71661e-16 0
4.93827 -1.3345e-16 0
4.93827 8.32331e-17 0
4.93827 -1.3345e-16 0
4.93827 8.32331e-17 0
4.44444 1.69735e-16 0
4.44444 6.33446e-16 0
4.44444 1.69735e-16 0
4.44444 6.33446e-16 0
3.45679 1.49028e-16 0
3.45679 -2.7563e-17 0
3.45679 6.06351e-16 0
3.45679 4.19251e-16 0
4.44444 -7.73032e-16 0
4.44444 -4.09852e-16 0
4.44444 -7.73032e-16 0
4.44444 -4.09852e-16 0
4.93827 -4.71661e-16 0
4.93827 1.52249e-16 0
4.93827 -4.71661e-16 0
4.93827 1.52249e-16 0
4.93827 8.32331e-17 0
4.93827 3.45488e-16 0
4.93827 8.32331e-17 0
4.93827 3.45488e-16 0
4.44444 6.33446e-16 0
4.44444 1.72108e-16 0
4.44444 6.33446e-16 0
4.44444 1.72108e-16 0
3.45679 -2.7563e-17 0
3.45679 -8.54646e-17 0
3.45679 4.19251e-16 0
3.45679 -2.2572e-16 0
4.44444 -4.09852e-16 0
4.44444 -7.75872e-17 0
4.44444 -4.09852e-16 0
4.44444 -7.75872e-17 0
4.93827 1.52249e-16 0
4.93827 -6.18332e-17 0
4.93827 1.52249e-16 0
4.93827 -6.18332e-17 0
4.93827 3.45488e-16 0
4.93827 -1.3844e-16 0
4.93827 3.45488e-16 0
4.93827 -1.3844e-16 0
4.44444 1.72108e-16 0
4.44444 1.93763e-16 0
4.44444 1.72108e-16 0
4.44444 1.93763e-16 0
3.45679 -8.54646e-17 0
3.45679 2.42772e-16 0
3.45679 -2.2572e-16 0
3.45679 1.44474e-16 0
4.44444 -7.75872e-17 0
4.44444 4.53018e-16 0
4.44444 -7.75872e-17 0
4.44444 4.53018e-16 0
4.93827 -6.18332e-17 0
4.93827 -6.98178e-16 0
4.93827 -6.18332e-17 0
4.93827 -6.98178e-16 0
4.93827 -1.3844e-16 0
4.93827 3.01566e-16 0
4.93827 -1.3844e-16 0
4.93827 3.01566e-16 0
4.44444 1.93763e-16 0
4.44444 6.52249e-16 0
4.44444 1.93763e-16 0
4.44444 6.52249e-16 0
3.45679 2.42772e-16 0
3.45679 4.79951e-16 0
3.45679 1.44474e-16 0
3.45679 1.44634e-16 0
4.44444 4.53018e-16 0
4.44444 -7.72143e-17 0
4.44444 4.53018e-16 0
4.44444 -7.72143e-17 0
4.93827 -6.98178e-16 0
4.93827 5.11399e-16 0
4.93827 -6.98178e-16 0
4.93827 5.11399e-16 0
4.93827 3.01566e-16 0
4.93827 -4.06752e-16 0
4.93827 3.01566e-16 0
4.93827 -4.06752e-16 0
4.44444 6.52249e-16 0
4.44444 5.3193e-16 0
4.44444 6.52249e-16 0
4.44444 5.3193e-16 0
3.45679 4.79951e-16 0
3.45679 1.60556e-16 0
3.45679 1.44634e-16 0
3.45679 4.13896e-17 0
4.44444 -7.72143e-17 0
4.44444 -6.87116e-16 0
4.44444 -7.72143e-17 0
4.44444 -6.87116e-16 0
4.93827 5.11399e-16 0
4.93827 -4.33047e-17 0
4.93827 5.11399e-16 0
4.93827 -4.33047e-17 0
4.93827 -4.06752e-16 0
4.93827 6.44662e-16 0
4.93827 -4.06752e-16 0
4.93827 6.44662e-16 0
4.44444 5.3193e-16 0
4.44444 -2.06208e-17 0
4.44444 5.3193e-16 0
4.44444 -2.06208e-17 0
3.45679 1.60556e-16 0
3.45679 4.08505e-16 0
3.45679 4.13896e-17 0
3.45679 -3.83245e-16 0
4.44444 -6.87116e-16 0
4.44444 6.20004e-17 0
4.44444 -6.87116e-16 0
4.44444 6.20004e-17 0
4.93827 -4.33047e-17 0
4.93827 1.31514e-16 0
4.93827 -4.33047e-17 0
4.93827 1.31514e-16 0
4.93827 6.44662e-16 0
4.93827 -1.32138e-16 0
4.93827 6.44662e-16 0
4.93827 -1.32138e-16 0
4.44444 -2.06208e-17 0
4.44444 -1.93102e-16 0
4.44444 -2.06208e-17 0
4.44444 -1.93102e-16 0
3.45679 4.08505e-16 0
3.45679 -6.49608e-17 0
3.45679 -3.83245e-16 0
3.45679 -5.49476e-16 0
4.44444 6.20004e-17 0
4.44444 3.86374e-16 0
4.44444 6.20004e-17 0
4.44444 3.86374e-16 0
4.93827 1.31514e-16 0
4.93827 5.36941e-16 0
4.93827 1.31514e-16 0
4.93827 5.36941e-16 0
4.93827 -1.32138e-16 0
4.93827 5.38339e-16 0
4.93827 -1.32138e-16 0
4.93827 5.38339e-16 0
4.44444 -1.93102e-16 0
4.44444 -4.91961e-16 0
4.44444 -1.93102e-16 0
4.44444 -4.91961e-16 0
3.45679 -6.49608e-17 0
3.45679 1.20375e-16 0
3.45679 -5.49476e-16 0
3.45679 -5.40516e-17 0
4.44444 3.86374e-16 0
4.44444 -1.9639e-16 0
4.44444 3.86374e-16 0
4.44444 -1.9639e-16 0
4.93827 5.36941e-16 0
4.93827 -8.17003e-16 0
4.93827 5.36941e-16 0
4.93827 -8.17003e-16 0
4.93827 5.38339e-16 0
4.93827 5.42089e-16 0
4.93827 5.38339e-16 0
4.93827 5.42089e-16 0
4.44444 -4.91961e-16 0
4.44444 -6.58731e-17 0
4.44444 -4.91961e-16 0
4.44444 -6.58731e-17 0
3.45679 1.20375e-16 0
3.45679 4.06343e-16 0
3.45679 -5.40516e-17 0
3.45679 5.46915e-16 0
4.44444 -1.9639e-16 0
4.44444 -5.38627e-17 0
4.44444 -1.9639e-16 0
4.44444 -5.38627e-17 0
4.93827 -8.17003e-16 0
4.93827 -4.70219e-16 0
4.93827 -8.17003e-16 0
4.93827 -4.70219e-16 0
4.93827 5.42089e-16 0
4.93827 4.42058e-16 0
4.93827 5.42089e-16 0
4.93827 4.42058e-16 0
4.44444 -6.58731e-17 0
4.44444 1.17897e-15 0
4.44444 -6.58731e-17 0
4.44444 1.17897e-15 0
3.45679 4.06343e-16 0
3.45679 3.76671e-17 0
3.45679 5.46915e-16 0
3.45679 4.45746e-16 0
4.44444 -5.38627e-17 0
4.44444 4.48939e-16 0
4.44444 -5.38627e-17 0
4.44444 4.48939e-16 0
4.93827 -4.70219e-16 0
4.93827 8.77278e-17 0
4.93827 -4.70219e-16 0
4.93827 8.77278e-17 0
4.93827 4.42058e-16 0
4.93827 5.93442e-16 0
4.93827 4.42058e-16 0
4.93827 5.93442e-16 0
4.44444 1.17897e-15 0
4.44444 -5.57977e-16 0
4.44444 1.17897e-15 0
4.44444 -5.57977e-16 0
3.45679 3.76671e-17 0
3.45679 4.69686e-16 0
3.45679 4.45746e-16 0
3.45679 2.56635e-16 0
4.44444 4.48939e-16 0
4.44444 -5.58272e-16 0
4.44444 4.48939e-16 0
4.44444 -5.58272e-16 0
4.93827 8.77278e-17 0
4.93827 5.79531e-17 0
4.93827 8.77278e-17 0
4.93827 5.79531e-17 0
4.93827 5.93442e-16 0
4.93827 1.07296e-16 0
4.93827 5.93442e-16 0
4.93827 1.07296e-16 0
4.44444 -5.57977e-16 0
4.44444 3.85259e-16 0
4.44444 -5.57977e-16 0
4.44444 3.85259e-16 0
3.45679 4.69686e-16 0
3.45679 6.1077e-16 0
3.45679 2.56635e-16 0
3.45679 -6.4361e-17 0
4.44444 -5.58272e-16 0
4.44444 -2.96168e-16 0
4.44444 -5.58272e-16 0
4.44444 -2.96168e-16 0
4.93827 5.79531e-17 0
4.93827 3.16276e-16 0
4.93827 5.79531e-17 0
4.93827 3.16276e-16 0
4.93827 1.07296e-16 0
4.93827 8.49778e-17 0
4.93827 1.07296e-16 0
4.93827 8.49778e-17 0
4.44444 3.85259e-16 0
4.44444 -1.71996e-16 0
4.44444 3.85259e-16 0
4.44444 -1.71996e-16 0
3.45679 6.1077e-16 0
3.45679 1.35457e-16 0
3.45679 -6.4361e-17 0
3.45679 2.83392e-16 0
4.44444 -2.96168e-16 0
4.44444 2.71887e-16 0
4.44444 -2.96168e-16 0
4.44444 2.71887e-16 0
4.93827 3.16276e-16 0
4.93827 -5.79412e-16 0
4.93827 3.16276e-16 0
4.93827 -5.79412e-16 0
4.93827 8.49778e-17 0
4.93827 7.55687e-16 0
4.93827 8.49778e-17 0
4.93827 7.55687e-16 0
4.44444 -1.71996e-16 0
4.44444 4.91547e-16 0
4.44444 -1.71996e-16 0
4.44444 4.91547e-16 0
3.45679 1.35457e-16 0
3.45679 9.71198e-17 0
3.45679 2.83392e-16 0
3.45679 3.8354e-16 0
4.44444 2.71887e-16 0
4.44444 -1.68884e-16 0
4.44444 2.71887e-16 0
4.44444 -1.68884e-16 0
4.93827 -5.79412e-16 0
4.93827 3.34516e-16 0
4.93827 -5.79412e-16 0
4.93827 3.34516e-16 0
4.93827 7.55687e-16 0
4.93827 8.40955e-16 0
4.93827 7.55687e-16 0
4.93827 8.40955e-16 0
4.44444 4.91547e-16 0
4.44444 2.10909e-17 0
4.44444 4.91547e-16 0
4.44444 2.10909e-17 0
3.45679 9.71198e-17 0
3.45679 -1.39246e-16 0
3.45679 3.8354e-16 0
3.45679 3.23828e-16 0
4.44444 -1.68884e-16 0
4.44444 1.75909e-16 0
4.44444 -1.68884e-16 0
4.44444 1.75909e-16 0
4.93827 3.34516e-16 0
4.93827 -1.49304e-16 0
4.93827 3.34516e-16 0
4.93827 -1.49304e-16 0
4.93827 8.40955e-16 0
4.93827 4.28276e-17 0
4.93827 8.40955e-16 0
4.93827 4.28276e-17 0
4.44444 2.10909e-17 0
4.44444 2.20743e-16 0
4.44444 2.10909e-17 0
4.44444 2.20743e-16 0
3.45679 -1.39246e-16 0
3.45679 -7.76146e-17 0
3.45679 3.23828e-16 0
3.45679 3.32243e-16 0
4.44444 1.75909e-16 0
4.44444 4.02441e-16 0
4.44444 1.75909e-16 0
4.44444 4.02441e-16 0
4.93827 -1.49304e-16 0
4.93827 -6.42351e-16 0
4.93827 -1.49304e-16 0
4.93827 -6.42351e-16 0
4.93827 4.28276e-17 0
4.93827 7.24898e-16 0
4.93827 4.28276e-17 0
4.93827 7.24898e-16 0
4.44444 2.20743e-16 0
4.44444 7.48116e-16 0
4.44444 2.20743e-16 0
4.44444 7.48116e-16 0
3.45679 -7.76146e-17 0
3.45679 2.79517e-16 0
3.45679 3.32243e-16 0
3.45679 2.02524e-16 0
4.44444 4.02441e-16 0
4.44444 2.58188e-16 0
4.44444 4.02441e-16 0
4.44444 2.58188e-16 0
4.93827 -6.42351e-16 0
4.93827 5.45914e-16 0
4.93827 -6.42351e-16 0
4.93827 5.45914e-16 0
4.93827 7.24898e-16 0
4.93827 -2.64198e-16 0
4.93827 7.24898e-16 0
4.93827 -2.64198e-16 0
4.44444 7.48116e-16 0
4.44444 3.9066e-16 0
4.44444 7.48116e-16 0
4.44444 3.9066e-16 0
3.45679 2.79517e-16 0
3.45679 6.68273e-17 0
3.45679 2.02524e-16 0
3.45679 5.97234e-16 0
4.44444 2.58188e-16 0
4.44444 4.55829e-16 0
4.44444 2.58188e-16 0
4.44444 4.55829e-16 0
4.93827 5.45914e-16 0
4.93827 -7.73941e-16 0
4.93827 5.45914e-16 0
4.93827 -7.73941e-16 0
4.93827 -2.64198e-16 0
4.93827 4.53779e-16 0
4.93827 -2.64198e-16 0
4.93827 4.53779e-16 0
4.44444 3.9066e-16 0
4.44444 -6.60844e-17 0
4.44444 3.9066e-16 0
4.44444 -6.60844e-17 0
3.45679 6.68273e-17 0
3.45679 5.45094e-16 0
3.45679 5.97234e-16 0
3.45679 5.78195e-16 0
4.44444 4.55829e-16 0
4.44444 4.93403e-16 0
4.44444 4.55829e-16 0
4.44444 4.93403e-16 0
4.93827 -7.73941e-16 0
4.93827 -4.82544e-17 0
4.93827 -7.73941e-16 0
4.93827 -4.82544e-17 0
4.93827 4.53779e-16 0
4.93827 -5.66633e-16 0
4.93827 4.53779e-16 0
4.93827 -5.66633e-16 0
4.44444 -6.60844e-17 0
4.44444 8.59575e-16 0
4.44444 -6.60844e-17 0
4.44444 8.59575e-16 0
3.45679 5.45094e-16 0
3.45679 6.92597e-16 0
3.45679 5.78195e-16 0
3.45679 1.04035e-16 0
4.44444 4.93403e-16 0
4.44444 9.08498e-17 0
4.44444 4.93403e-16 0
4.44444 9.08498e-17 0
4.93827 -4.82544e-17 0
4.93827 3.65129e-16 0
4.93827 -4.82544e-17 0
4.93827 3.65129e-16 0
4.93827 -5.66633e-16 0
4.93827 4.29526e-16 0
4.93827 -5.66633e-16 0
4.93827 4.29526e-16 0
4.44444 8.59575e-16 0
4.44444 2.11302e-16 0
4.44444 8.59575e-16 0
4.44444 2.11302e-16 0
3.45679 6.92597e-16 0
3.45679 2.81308e-16 0
3.45679 1.04035e-16 0
3.45679 -2.07295e-16 0
4.44444 9.08498e-17 0
4.44444 2.07457e-16 0
4.44444 9.08498e-17 0
4.44444 2.07457e-16 0
4.93827 3.65129e-16 0
4.93827 -1.48577e-16 0
4.93827 3.65129e-16 0
4.93827 -1.48577e-16 0
4.93827 4.29526e-16 0
4.93827 3.75333e-16 0
4.93827 4.29526e-16 0
4.93827 3.75333e-16 0
4.44444 2.11302e-16 0
4.44444 7.66027e-16 0
4.44444 2.11302e-16 0
4.44444 7.66027e-16 0
3.45679 2.81308e-16 0
3.45679 3.77859e-16 0
3.45679 -2.07295e-16 0
3.45679 1.16694e-16 0
4.44444 2.07457e-16 0
4.44444 -1.28009e-17 0
4.44444 2.07457e-16 0
4.44444 -1.28009e-17 0
4.93827 -1.48577e-16 0
4.93827 1.49701e-16 0
4.93827 -1.48577e-16 0
4.93827 1.49701e-16 0
4.93827 3.75333e-16 0
4.93827 -8.18838e-16 0
4.93827 3.75333e-16 0
4.93827 -8.18838e-16 0
4.44444 7.66027e-16 0
4.44444 4.45482e-16 0
4.44444 7.66027e-16 0
4.44444 4.45482e-16 0
3.45679 3.77859e-16 0
3.45679 1.86905e-16 0
3.45679 1.16694e-16 0
3.45679 2.73139e-16 0
4.44444 -1.28009e-17 0
4.44444 3.84453e-16 0
4.44444 -1.28009e-17 0
4.44444 3.84453e-16 0
4.93827 1.49701e-16 0
4.93827 -3.49358e-16 0
4.93827 1.49701e-16 0
4.93827 -3.49358e-16 0
4.93827 -8.18838e-16 0
4.93827 4.03019e-16 0
4.93827 -8.18838e-16 0
4.93827 4.03019e-16 0
4.44444 4.45482e-16 0
4.44444 4.80608e-16 0
4.44444 4.45482e-16 0
4.44444 4.80608e-16 0
3.45679 1.86905e-16 0